
                                 *****************
                                 * O   R   C   A *
                                 *****************

                                            #,                                       
                                            ###                                      
                                            ####                                     
                                            #####                                    
                                            ######                                   
                                           ########,                                 
                                     ,,################,,,,,                         
                               ,,#################################,,                 
                          ,,##########################################,,             
                       ,#########################################, ''#####,          
                    ,#############################################,,   '####,        
                  ,##################################################,,,,####,       
                ,###########''''           ''''###############################       
              ,#####''   ,,,,##########,,,,          '''####'''          '####       
            ,##' ,,,,###########################,,,                        '##       
           ' ,,###''''                  '''############,,,                           
         ,,##''                                '''############,,,,        ,,,,,,###''
      ,#''                                            '''#######################'''  
     '                                                          ''''####''''         
             ,#######,   #######,   ,#######,      ##                                
            ,#'     '#,  ##    ##  ,#'     '#,    #''#        ,####,    ,#,          
            ##       ##  ##   ,#'  ##            #'  '#       #'       ,# #          
            ##       ##  #######   ##           ,######,      #####,      #          
            '#,     ,#'  ##    ##  '#,     ,#' ,#      #,     #,   #      #          
             '#######'   ##     ##  '#######'  #'      '#     '####' #    #          



                #########################################################
                #                        -***-                          #
                #          Department of theory and spectroscopy        #
                #                                                       #
                #                      Frank Neese                      #
                #                                                       #
                #     Directorship, Architecture, Infrastructure        #
                #                    SHARK, DRIVERS                     #
                #        Core code/Algorithms in most modules           #
                #                                                       #
                #        Max Planck Institute fuer Kohlenforschung      #
                #                Kaiser Wilhelm Platz 1                 #
                #                 D-45470 Muelheim/Ruhr                 #
                #                      Germany                          #
                #                                                       #
                #                  All rights reserved                  #
                #                        -***-                          #
                #########################################################


                         Program Version 6.1.1  -  RELEASE   -
                                (GIT: $487d211c$)
                          ($2025-11-21 10:33:24 +0100$)
                                                                         
                                  - NO-DMRG VERSION -                    
                                                                         


 With contributions from (in alphabetic order):
[Max-Planck-Institut fuer Kohlenforschung]                               
  Daniel Aravena         : Magnetic Suceptibility                        
  Michael Atanasov       : Ab Initio Ligand Field Theory (pilot matlab implementation)
  Alexander A. Auer      : GIAO ZORA, VPT2 properties, NMR spectrum      
  Ute Becker             : All parallelization in ORCA, NUMFREQ, NUMCALC 
  Giovanni Bistoni       : ED, misc. LED, open-shell LED, HFLD           
  Dmytro Bykov           : pre 5.0 version of the SCF Hessian            
  Marcos Casanova-Páez   : Triplet and SCS-CIS(D). UHF-(DLPNO)-IP/EA/STEOM-CCSD. UHF-CVS-IP/STEOM-CCSD   
  Vijay G. Chilkuri      : MRCI spin determinant printing, contributions to CSF-ICE 
  Pauline Colinet        : FMM embedding                                 
  Dipayan Datta          : RHF DLPNO-CCSD density                        
  Achintya Kumar Dutta   : EOM-CC, STEOM-CC                              
  Nicolas Foglia         : Exact transition moments, OPA infrastructure, MCD improvements    
  Dmitry Ganyushin       : Spin-Orbit,Spin-Spin,Magnetic field MRCI      
  Miquel Garcia-Rates    : C-PCM and meta-GGA Hessian, CCSD/C-PCM, Gaussian charge scheme 
  Tiago L. C. Gouveia    : GS-ROHF, GS-ROCIS                             
  Yang Guo               : DLPNO-NEVPT2, F12-NEVPT2, CIM, IAO-localization        
  Andreas Hansen         : Spin unrestricted coupled pair/coupled cluster methods 
  Ingolf Harden          : AUTO-CI MPn and infrastructure                
  Benjamin Helmich-Paris : MC-RPA, TRAH-(SCF,CASSCF), AVAS, COSX integrals, SCF dyn. polar., MC-PDFT, srDFT 
  Lee Huntington         : MR-EOM, pCC                                   
  Robert Izsak           : Overlap fitted RIJCOSX, COSX-SCS-MP3, EOM     
  Riya Kayal             : Wick's Theorem for AUTO-CI, AUTO-CI UHF-CCSDT 
  Emily Kempfer          : AUTO-CI RHF CISDT and CCSDT, approximate NEVPT4
  Christian Kollmar      : KDIIS, OOCD, Brueckner-CCSD(T), CCSD density, CASPT2, CASPT2-K, improved NEVPT2 
  Axel Koslowski         : Symmetry handling                             
  Simone Kossmann        : meta-GGA functionals, TD-DFT gradient, OOMP2, (MP2 Hessian; deprecated post 5.0) 
  Lucas Lang             : DCDCAS, Hyperfine gauge corrections, ICE-SOC+SSC
  Marvin Lechner         : AUTO-CI (C++ implementation), FIC-MRCC        
  Spencer Leger          : CASSCF response                               
  Dagmar Lenk            : GEPOL surface, SMD, ORCA-2-JSON               
  Dimitrios Liakos       : Extrapolation schemes; Compound Job, Property file
  Dimitrios Manganas     : Further ROCIS development; embedding schemes. LFT, Crystal Embedding 
  Dimitrios Pantazis     : SARC Basis sets                               
  Anastasios Papadopoulos: AUTO-CI, single reference methods and gradients 
  Taras Petrenko         : pre 6.0 DFT Hessian and TD-DFT gradient,  ECA, NRVS 
  Petra Pikulova         : Analytic Raman intensities                    
  Peter Pinski           : DLPNO-MP2, DLPNO-MP2 Gradient                 
  Shashank Vittal Rao    : ES-AILFT, MagRelax                            
  Christoph Reimann      : Effective Core Potentials                     
  Marius Retegan         : Local ZFS, SOC                                
  Christoph Riplinger    : Optimizer, TS searches, QM/MM, DLPNO-CCSD(T), (RO)-DLPNO pert. Triples 
  Michael Roemelt        : Original ROCIS implementation, recursive CI coupling coefficients
  Masaaki Saitow         : Open-shell DLPNO-CCSD energy and density      
  Barbara Sandhoefer     : DKH picture change effects                    
  Yorick L. A. Schmerwitz: GMF and freeze-and-release deltaSCF, NEB S-IDPP initial path                    
  Kantharuban Sivalingam : CASSCF convergence/infrastructure, NEVPT2, NEVPT3, NEVPT4(SD), FIC-MRCI and CEPA variants
  Bernardo de Souza      : ESD, SOC TD-DFT                               
  Georgi L. Stoychev     : AutoAux, RI-MP2 NMR, DLPNO-MP2 response, X2C  
  Van Anh Tran           : RI-MP2 g-tensors                              
  Willem Van den Heuvel  : Paramagnetic NMR                              
  Zikuan Wang            : NOTCH, Electric field optimization            
  Frank Wennmohs         : Technical directorship and infrastructure     
  Hang Xu                : AUTO-CI-Response properties                   
                                                                         
[FACCTs GmbH]                                                            
  Markus Bursch, Nicolas Foglia, Miquel Garcia-Rates, Ingolf Harden, Hagen Neugebauer, Anastasios Papadopoulos, 
  Christoph Riplinger, Bernardo de Souza, Georgi L. Stoychev                                                    
                                                                 
  APM, various basis sets, CI-OPT, improved COSX, DLPNO-Multilevel,           
  DOCKER, DRACO, updates on ESD, Fragmentator, GOAT, IRC, LR-CPCM, L-BFGS, MBIS, meta-GGA TD-DFT gradient, ML-optimized integration grids, 
  MM, NACMEs, nearIR, NEB, NEB-TS, NL-DFT gradient (VV10), 2- and 3-layer-ONIOM, interface openCOSMO-RS, QMMM,   
  Crystal-QMMM, RESP, rigid body optimization, SF, symmetry and pop. for TD-DFT, various functionals, SOLVATOR                                   
                                                                         
[Other institutions]                                                     
  V. Asgeirsson          : NEB                                           
  Christoph Bannwarth    : sTDA-DFT, sTD-DFT, PBEh-3c, B97-3c, D3        
  Giovanni Bistoni       : ETS/NOCV, ADLD/ADEX, COVALED                  
  Martin Brehm           : Molecular dynamics                            
  Ronald Cardenas        : ETS/NOCV                                      
  Martina Colucci        : COVALED                                       
  Sebastian Ehlert       : rSCAN, r2SCAN, r2SCAN-3c, D4, dhf basis sets  
  Marvin Friede          : D4 for Fr, Ra, Ac-Lr                          
  Lars Goerigk           : TD-DFT with DH, B97 family of functionals     
  Stefan Grimme          : VdW corrections, initial TS optimization, DFT functionals, gCP, sTDA/sTD-DF 
  Waldemar Hujo          : DFT-NL                                        
  H. Jonsson             : NEB                                           
  Holger Kruse           : gCP                                           
  Marcel Mueller         : wB97X-3c, vDZP basis set                      
  Hagen Neugebauer       : wr2SCAN, Native XTB                           
  Gianluca Regni         : ADLD/ADEX                                     
  Tobias Risthaus        : pre 6.0 range-separated hybrid DFT and stability analysis
  Lukas Wittmann         : regularized MP2, r2SCAN double-hybrids, wr2SCAN        
                                                                         
We gratefully acknowledge several colleagues who have allowed us to      
interface, adapt or use parts of their codes:                            
  Ed Valeev, F. Pavosevic, A. Kumar             : LibInt (2-el integral package), F12 methods 
  Garnet Chan, S. Sharma, J. Yang, R. Olivares  : DMRG                   
  Ulf Ekstrom                                   : XCFun DFT Library      
  Mihaly Kallay                                 : mrcc  (arbitrary order and MRCC methods)
  Frank Weinhold                                : gennbo (NPA and NBO analysis)           
  Simon Mueller                                 : openCOSMO-RS                            
  Christopher J. Cramer and Donald G. Truhlar   : smd solvation model                     
  S Lehtola, MJT Oliveira, MAL Marques          : LibXC Library                           
  Liviu Ungur et al                             : ANISO software                          


 Your calculation uses the libint2 library for the computation of 2-el integrals
 For citations please refer to: http://libint.valeyev.net

 Your ORCA version has been built with support for libXC version: 7.0.0
 For citations please refer to: https://libxc.gitlab.io

 This ORCA versions uses:
   CBLAS   interface :  Fast vector & matrix operations
   LAPACKE interface :  Fast linear algebra routines
   SCALAPACK package :  Parallel linear algebra routines
   Shared memory     :  Shared parallel matrices
   BLAS/LAPACK       :  OpenBLAS 0.3.29  USE64BITINT DYNAMIC_ARCH NO_AFFINITY Cooperlake SINGLE_THREADED
        Core in use  :  Cooperlake
   Copyright (c) 2011-2014, The OpenBLAS Project


  ***********************************
  * Starting time: Fri Mar 27 12:25:43 2026
  * Host name:     jessica2
  * Process ID:    346680
  * Working dir.:  /home/jessica2/orca_calibration/results/.orca_tmp_hdO9gb
  ***********************************

NOTE: MaxCore=8000 MB was set to SCF,MP2,MDCI,CIPSI,MRCI,RASCI and CIS
      => If you want to overwrite this, your respective input block should be placed after the MaxCore statement


***************************************
The coordinates will be read from file: A0A7C5FAR6_ALA_20260327_122543.xyz
***************************************



Information: The global flag for NMR shieldings has been found
             ==>> will calculate the shieldings for all atoms in the system

================================================================================

----- Orbital basis set information -----
Your calculation utilizes the basis: def2-SVP
   F. Weigend and R. Ahlrichs, Phys. Chem. Chem. Phys. 7, 3297 (2005).

----- AuxJ basis set information -----
Your calculation utilizes the auxiliary basis: def2/J
   H-Rn: F. Weigend, Phys. Chem. Chem. Phys. 8, 1057 (2006).
   Fr-Lr: K. Eichkorn, F. Weigend, O. Treutler, R. Ahlrichs; Theor. Chem. Acc. 97, 119 (1997).

================================================================================
                                        WARNINGS
                       Please study these warnings very carefully!
================================================================================



WARNING: SCAN, rSCAN, or r2SCAN functional requested.
  ===> : libXC variant has now been activated.



================================================================================
                                       INPUT FILE
================================================================================
NAME = A0A7C5FAR6_ALA_20260327_122543_nmr.inp
|  1> ! r2SCAN def2-SVP def2/J NMR CPCM(Water)
|  2> %maxcore 8000
|  3> %pal nprocs 6 end
|  4> %scf MaxIter 300 end
|  5> %eprnmr
|  6>   TAU DOBSON
|  7> end
|  8> * xyzfile -4 1 A0A7C5FAR6_ALA_20260327_122543.xyz
|  9> 
| 10>                          ****END OF INPUT****
================================================================================

                       ****************************
                       * Single Point Calculation *
                       ****************************

---------------------------------
CARTESIAN COORDINATES (ANGSTROEM)
---------------------------------
  N    -11.893000    1.369000    4.897000
  H    -12.002000    1.511000    3.903000
  H    -12.681000    1.784000    5.373000
  H    -11.656000    0.401000    5.063000
  C    -10.707000    2.147000    5.348000
  H    -11.006000    2.876000    6.101000
  C     -9.655000    1.208000    5.964000
  H     -9.354000    0.482000    5.209000
  H     -8.791000    1.803000    6.260000
  C    -10.212000    0.470000    7.189000
  H    -10.435000    1.223000    7.945000
  H    -11.136000   -0.018000    6.879000
  S     -9.094000   -0.766000    7.893000
  C    -10.117000   -1.338000    9.275000
  H    -11.051000   -1.747000    8.891000
  H     -9.583000   -2.111000    9.828000
  H    -10.333000   -0.501000    9.939000
  C    -10.153000    2.925000    4.150000
  O    -10.740000    2.827000    3.074000
  N     -9.082000    3.712000    4.296000
  H     -8.766000    3.947000    5.226000
  C     -8.402000    4.333000    3.152000
  H     -8.823000    3.955000    2.220000
  C     -8.581000    5.854000    3.189000
  H     -8.341000    6.200000    4.195000
  H     -7.883000    6.296000    2.477000
  C    -10.007000    6.275000    2.832000
  H    -10.257000    5.879000    1.848000
  H    -10.693000    5.864000    3.573000
  C    -10.130000    7.800000    2.814000
  H     -9.892000    8.202000    3.799000
  H     -9.445000    8.218000    2.076000
  C    -11.568000    8.173000    2.444000
  H    -11.792000    7.762000    1.460000
  H    -12.241000    7.736000    3.181000
  N    -11.751000    9.640000    2.418000
  H    -11.127000   10.045000    1.734000
  H    -12.706000    9.856000    2.172000
  H    -11.544000   10.021000    3.330000
  C     -6.935000    3.930000    3.115000
  O     -6.317000    3.719000    4.156000
  N     -6.392000    3.820000    1.910000
  H     -6.994000    3.962000    1.111000
  C     -5.002000    3.449000    1.671000
  H     -4.430000    3.522000    2.596000
  C     -4.932000    2.006000    1.165000
  H     -5.493000    1.919000    0.235000
  H     -3.892000    1.732000    0.988000
  H     -5.361000    1.338000    1.911000
  C     -4.370000    4.418000    0.682000
  O     -4.927000    4.642000   -0.392000
  N     -3.211000    4.977000    1.028000
  H     -2.879000    4.820000    1.969000
  C     -2.435000    5.861000    0.156000
  H     -3.032000    6.150000   -0.709000
  C     -2.030000    7.129000    0.918000
  H     -2.929000    7.616000    1.295000
  H     -1.391000    6.848000    1.756000
  C     -1.271000    8.097000   -0.002000
  H     -0.348000    7.611000   -0.319000
  H     -1.894000    8.296000   -0.874000
  C     -0.939000    9.410000    0.694000
  H     -0.636000   10.139000   -0.057000
  H     -1.829000    9.769000    1.210000
  N      0.152000    9.264000    1.678000
  H      0.229000    8.364000    2.130000
  C      0.996000   10.214000    2.021000
  N      1.051000   11.347000    1.383000
  H      0.434000   11.513000    0.601000
  H      1.711000   12.055000    1.673000
  N      1.824000   10.021000    3.002000
  H      1.817000    9.142000    3.499000
  H      2.471000   10.751000    3.264000
  C     -1.222000    5.129000   -0.398000
  O     -0.458000    4.541000    0.361000
  N     -1.017000    5.200000   -1.708000
  H     -1.753000    5.550000   -2.304000
  C      0.220000    4.744000   -2.332000
  H      0.484000    3.745000   -1.986000
  C      0.006000    4.696000   -3.849000
  H     -0.798000    4.018000   -4.136000
  H     -0.180000    5.681000   -4.276000
  S      1.506000    4.071000   -4.660000
  H      1.033000    4.142000   -5.901000
  C      1.375000    5.684000   -1.949000
  O      1.347000    6.859000   -2.309000
  N      2.421000    5.162000   -1.298000
  H      2.353000    4.189000   -1.035000
  C      3.631000    5.911000   -0.904000
  H      3.362000    6.786000   -0.312000
  C      4.535000    5.000000   -0.053000
  H      4.678000    4.079000   -0.618000
  H      5.491000    5.513000    0.053000
  C      3.976000    4.664000    1.342000
  H      3.889000    5.584000    1.920000
  H      2.990000    4.212000    1.229000
  C      4.910000    3.682000    2.077000
  H      5.946000    3.975000    1.909000
  H      4.694000    3.709000    3.145000
  C      4.689000    2.258000    1.546000
  H      3.925000    1.807000    2.179000
  H      4.304000    2.363000    0.532000
  N      5.894000    1.390000    1.531000
  H      6.250000    1.292000    2.471000
  H      5.649000    0.480000    1.168000
  H      6.602000    1.807000    0.944000
  C      4.438000    6.452000   -2.094000
  O      5.307000    7.296000   -1.907000
  N      4.181000    5.945000   -3.305000
  H      3.451000    5.249000   -3.366000
  C      4.945000    6.266000   -4.525000
  H      5.919000    6.686000   -4.273000
  C      5.161000    4.994000   -5.373000
  H      4.180000    4.592000   -5.626000
  C      5.950000    5.263000   -6.661000
  H      6.931000    5.665000   -6.409000
  H      6.070000    4.332000   -7.215000
  H      5.410000    5.983000   -7.275000
  C      5.916000    3.928000   -4.570000
  H      5.340000    3.665000   -3.682000
  H      6.057000    3.040000   -5.187000
  H      6.888000    4.319000   -4.269000
  C      4.292000    7.366000   -5.362000
  O      4.995000    8.205000   -5.915000
  N      2.963000    7.350000   -5.501000
  H      2.440000    6.628000   -5.026000
  C      2.239000    8.253000   -6.410000
  H      2.880000    9.082000   -6.711000
  C      1.815000    7.478000   -7.667000
  H      1.403000    8.133000   -8.434000
  H      2.636000    6.898000   -8.088000
  S      0.506000    6.283000   -7.269000
  H      0.374000    5.805000   -8.503000
  C      1.048000    8.980000   -5.770000
  O      0.280000    9.620000   -6.483000
  N      0.857000    8.838000   -4.456000
  H      1.425000    8.128000   -4.017000
  C     -0.229000    9.444000   -3.673000
  H     -0.237000    9.024000   -2.667000
  C     -0.035000   10.969000   -3.568000
  H      0.089000   11.302000   -4.598000
  H     -0.917000   11.443000   -3.136000
  C      1.202000   11.357000   -2.755000
  O      1.235000   11.006000   -1.546000
  O      2.068000   12.061000   -3.316000
  C     -1.665000    9.031000   -4.069000
  O     -2.634000    9.590000   -3.556000
  N     -1.842000    8.010000   -4.919000
  H     -1.041000    7.648000   -5.417000
  C     -3.163000    7.435000   -5.211000
  H     -3.779000    8.213000   -5.661000
  C     -3.036000    6.272000   -6.207000
  H     -2.429000    5.481000   -5.767000
  H     -4.027000    5.882000   -6.440000
  H     -2.562000    6.627000   -7.122000
  C     -3.875000    6.964000   -3.930000
  O     -3.272000    6.269000   -3.109000
  N     -5.165000    7.298000   -3.795000
  H     -5.551000    7.918000   -4.493000
  C     -6.017000    6.903000   -2.666000
  H     -5.444000    6.407000   -1.882000
  C     -6.769000    8.116000   -2.066000
  H     -7.392000    8.561000   -2.842000
  C     -7.656000    7.685000   -0.880000
  H     -7.034000    7.241000   -0.103000
  H     -8.173000    8.556000   -0.477000
  H     -8.389000    6.954000   -1.221000
  C     -5.829000    9.264000   -1.630000
  H     -5.320000    9.607000   -2.530000
  H     -6.468000   10.061000   -1.248000
  C     -4.790000    8.889000   -0.567000
  H     -4.151000    8.093000   -0.948000
  H     -4.181000    9.761000   -0.330000
  H     -5.299000    8.546000    0.334000
  C     -6.985000    5.801000   -3.098000
  O     -7.800000    5.994000   -4.000000
  N     -6.921000    4.664000   -2.410000
  H     -6.124000    4.541000   -1.801000
  C     -7.878000    3.572000   -2.523000
  H     -8.484000    3.701000   -3.420000
  C     -7.123000    2.245000   -2.630000
  H     -6.519000    2.097000   -1.735000
  H     -7.837000    1.427000   -2.725000
  H     -6.475000    2.265000   -3.506000
  C     -8.841000    3.575000   -1.330000
  O     -8.409000    3.643000   -0.176000
  N    -10.141000    3.467000   -1.599000
  H    -10.429000    3.560000   -2.563000
  C    -11.176000    3.289000   -0.579000
  H    -10.782000    3.585000    0.393000
  C    -12.414000    4.145000   -0.888000
  H    -12.785000    3.869000   -1.875000
  H    -13.177000    3.929000   -0.140000
  C    -12.087000    5.646000   -0.866000
  H    -11.609000    5.750000    0.108000
  H    -11.385000    5.938000   -1.647000
  C    -13.325000    6.550000   -0.927000
  O    -13.187000    7.670000   -1.468000
  O    -14.356000    6.189000   -0.320000
  C    -11.541000    1.807000   -0.478000
  O    -12.021000    1.209000   -1.437000
  N    -11.303000    1.211000    0.689000
  H    -10.977000    1.775000    1.461000
  C    -11.491000   -0.219000    0.908000
  H    -12.559000   -0.437000    0.908000
  H    -11.009000   -0.765000    0.097000
  C    -10.893000   -0.671000    2.234000
  O    -10.160000    0.065000    2.896000
  N    -11.228000   -1.874000    2.681000
  H    -11.964000   -2.393000    2.225000
  C    -10.676000   -2.404000    3.934000
  H    -10.538000   -1.600000    4.657000
  C    -11.646000   -3.432000    4.524000
  H    -11.853000   -4.222000    3.802000
  H    -11.170000   -3.862000    5.405000
  C    -12.961000   -2.755000    4.933000
  O    -12.895000   -1.587000    5.411000
  O    -14.015000   -3.391000    4.731000
  C     -9.239000   -2.920000    3.777000
  O     -8.500000   -2.992000    4.757000
  N     -8.803000   -3.171000    2.541000
  H     -9.491000   -3.067000    1.809000
  C     -7.459000   -3.623000    2.172000
  H     -6.771000   -3.503000    3.009000
  C     -7.521000   -5.115000    1.796000
  H     -8.207000   -5.226000    0.956000
  H     -6.523000   -5.431000    1.493000
  C     -8.001000   -5.986000    2.968000
  H     -7.342000   -5.827000    3.822000
  H     -9.018000   -5.699000    3.236000
  C     -7.990000   -7.466000    2.615000
  O     -8.849000   -7.974000    1.919000
  N     -7.022000   -8.226000    3.079000
  H     -7.004000   -9.210000    2.852000
  H     -6.302000   -7.822000    3.660000
  C     -6.913000   -2.770000    1.010000
  O     -7.716000   -2.202000    0.266000
  N     -5.582000   -2.644000    0.844000
  C     -4.523000   -3.232000    1.657000
  H     -4.744000   -4.292000    1.779000
  H     -4.539000   -2.744000    2.631000
  C     -3.215000   -2.988000    0.904000
  H     -2.943000   -3.863000    0.313000
  H     -2.409000   -2.755000    1.600000
  C     -3.529000   -1.789000    0.013000
  H     -2.928000   -1.845000   -0.895000
  H     -3.386000   -0.816000    0.483000
  C     -5.006000   -1.992000   -0.328000
  H     -5.500000   -1.032000   -0.480000
  C     -5.196000   -2.870000   -1.579000
  O     -5.368000   -4.086000   -1.454000
  N     -5.146000   -2.289000   -2.790000
  C     -4.900000   -0.882000   -3.077000
  H     -4.033000   -0.563000   -2.498000
  H     -5.775000   -0.312000   -2.764000
  C     -4.661000   -0.802000   -4.585000
  H     -3.597000   -0.863000   -4.814000
  H     -5.068000    0.123000   -4.994000
  C     -5.418000   -2.017000   -5.123000
  H     -4.958000   -2.363000   -6.049000
  H     -6.481000   -1.843000   -5.289000
  C     -5.226000   -3.065000   -4.023000
  H     -6.094000   -3.721000   -3.965000
  C     -3.958000   -3.911000   -4.233000
  O     -2.872000   -3.512000   -3.818000
  N     -4.076000   -5.045000   -4.938000
  H     -4.998000   -5.331000   -5.235000
  C     -2.927000   -5.905000   -5.292000
  H     -2.397000   -6.202000   -4.387000
  C     -3.404000   -7.174000   -6.021000
  H     -3.988000   -6.852000   -6.883000
  H     -2.515000   -7.704000   -6.363000
  C     -4.251000   -8.107000   -5.150000
  H     -3.709000   -8.320000   -4.229000
  H     -5.190000   -7.608000   -4.911000
  C     -4.543000   -9.423000   -5.889000
  O     -4.002000  -10.467000   -5.460000
  O     -5.309000   -9.370000   -6.878000
  C     -1.912000   -5.201000   -6.203000
  O     -0.731000   -5.534000   -6.205000
  N     -2.368000   -4.229000   -6.995000
  H     -3.367000   -4.084000   -7.025000
  C     -1.521000   -3.405000   -7.858000
  H     -0.512000   -3.378000   -7.446000
  C     -1.453000   -3.969000   -9.294000
  H     -2.460000   -3.982000   -9.711000
  C     -0.544000   -3.114000  -10.182000
  H      0.463000   -3.101000   -9.766000
  H     -0.516000   -3.536000  -11.187000
  H     -0.932000   -2.096000  -10.226000
  C     -0.900000   -5.400000   -9.341000
  H     -1.541000   -6.057000   -8.754000
  H     -0.874000   -5.746000  -10.374000
  H      0.109000   -5.414000   -8.928000
  C     -2.064000   -1.983000   -7.855000
  O     -3.264000   -1.763000   -8.038000
  N     -1.188000   -0.996000   -7.676000
  H     -0.240000   -1.217000   -7.406000
  C     -1.560000    0.405000   -7.805000
  H     -2.405000    0.633000   -7.155000
  C     -0.377000    1.289000   -7.398000
  H     -0.071000    1.141000   -6.362000
  H      0.487000    1.171000   -8.052000
  S     -0.876000    3.030000   -7.532000
  H      0.288000    3.539000   -7.138000
  C     -2.005000    0.705000   -9.250000
  O     -1.193000    0.556000  -10.167000
  N     -3.235000    1.205000   -9.481000
  C     -4.244000    1.542000   -8.486000
  H     -3.771000    2.148000   -7.713000
  H     -4.612000    0.615000   -8.046000
  C     -5.333000    2.300000   -9.241000
  H     -5.135000    3.372000   -9.245000
  H     -6.315000    2.114000   -8.805000
  C     -5.240000    1.711000  -10.647000
  H     -5.598000    2.407000  -11.405000
  H     -5.784000    0.770000  -10.733000
  C     -3.740000    1.466000  -10.832000
  H     -3.583000    0.562000  -11.421000
  C     -3.052000    2.653000  -11.523000
  O     -3.268000    2.874000  -12.711000
  N     -2.247000    3.428000  -10.787000
  H     -2.184000    3.227000   -9.799000
  C     -1.546000    4.611000  -11.303000
  H     -1.966000    4.920000  -12.260000
  C     -1.670000    5.782000  -10.309000
  H     -1.249000    5.462000   -9.356000
  C     -0.937000    7.037000  -10.795000
  H     -1.357000    7.358000  -11.748000
  H     -1.054000    7.834000  -10.061000
  H      0.122000    6.813000  -10.922000
  C     -3.142000    6.154000  -10.076000
  H     -3.675000    5.294000   -9.670000
  H     -3.201000    6.983000   -9.371000
  H     -3.597000    6.449000  -11.022000
  C     -0.087000    4.307000  -11.649000
  O      0.366000    4.688000  -12.723000
  N      0.660000    3.627000  -10.769000
  H      0.242000    3.353000   -9.891000
  C      2.102000    3.396000  -10.957000
  H      2.414000    3.735000  -11.945000
  C      2.888000    4.181000   -9.899000
  H      3.964000    4.123000  -10.062000
  H      2.584000    5.227000   -9.856000
  S      2.593000    3.503000   -8.245000
  H      3.377000    4.363000   -7.601000
  C      2.532000    1.921000  -11.011000
  O      3.695000    1.651000  -11.295000
  N      1.630000    0.968000  -10.760000
  H      0.716000    1.245000  -10.431000
  C      1.901000   -0.463000  -10.938000
  H      0.931000   -0.943000  -11.067000
  H      2.475000   -0.552000  -11.861000
  C      2.661000   -1.169000   -9.808000
  O      3.001000   -2.337000   -9.967000
  N      2.936000   -0.505000   -8.682000
  H      2.776000    0.492000   -8.660000
  C      3.563000   -1.141000   -7.502000
  H      4.329000   -1.859000   -7.795000
  C      4.195000   -0.109000   -6.552000
  H      4.645000   -0.632000   -5.708000
  C      5.271000    0.702000   -7.283000
  H      4.822000    1.225000   -8.127000
  H      5.708000    1.428000   -6.597000
  H      6.049000    0.030000   -7.645000
  C      3.152000    0.835000   -5.939000
  H      2.425000    0.254000   -5.371000
  H      3.648000    1.544000   -5.276000
  H      2.641000    1.378000   -6.734000
  C      2.587000   -2.040000   -6.737000
  O      1.372000   -1.858000   -6.847000
  N      3.118000   -2.981000   -5.953000
  H      4.125000   -3.059000   -5.936000
  C      2.337000   -3.899000   -5.123000
  H      1.529000   -4.289000   -5.742000
  H      2.998000   -4.716000   -4.832000
  C      1.735000   -3.265000   -3.854000
  O      1.972000   -2.085000   -3.561000
  N      0.944000   -4.035000   -3.078000
  C      0.705000   -5.460000   -3.262000
  H      1.654000   -5.933000   -3.514000
  H      0.007000   -5.582000   -4.091000
  C      0.134000   -5.962000   -1.944000
  H      0.926000   -6.254000   -1.254000
  H     -0.540000   -6.804000   -2.099000
  C     -0.627000   -4.742000   -1.435000
  H     -0.719000   -4.749000   -0.349000
  H     -1.617000   -4.656000   -1.883000
  C      0.251000   -3.565000   -1.876000
  H     -0.365000   -2.713000   -2.166000
  C      1.202000   -3.147000   -0.743000
  O      0.822000   -2.347000    0.107000
  N      2.442000   -3.644000   -0.728000
  H      2.631000   -4.394000   -1.378000
  C      3.499000   -3.260000    0.219000
  H      3.141000   -3.372000    1.243000
  C      4.737000   -4.163000    0.027000
  H      5.387000   -3.951000    0.876000
  H      4.366000   -5.185000    0.101000
  C      5.535000   -3.998000   -1.287000
  H      5.593000   -2.924000   -1.467000
  H      6.534000   -4.388000   -1.094000
  C      4.943000   -4.695000   -2.528000
  O      5.601000   -4.659000   -3.590000
  O      3.830000   -5.260000   -2.431000
  C      3.878000   -1.771000    0.134000
  O      4.425000   -1.190000    1.081000
  N      3.536000   -1.125000   -0.985000
  H      3.279000   -1.693000   -1.780000
  C      3.721000    0.306000   -1.190000
  H      4.429000    0.688000   -0.455000
  C      4.263000    0.603000   -2.594000
  H      3.568000    0.165000   -3.310000
  H      4.274000    1.686000   -2.716000
  C      5.676000    0.044000   -2.843000
  H      5.537000   -1.037000   -2.825000
  H      6.051000    0.345000   -3.821000
  C      6.692000    0.450000   -1.756000
  O      7.589000   -0.355000   -1.440000
  O      6.545000    1.545000   -1.150000
  C      2.507000    1.159000   -0.801000
  O      2.491000    2.362000   -1.070000
  N      1.522000    0.588000   -0.105000
  H      1.512000   -0.420000   -0.041000
  C      0.400000    1.329000    0.466000
  H      0.445000    2.332000    0.041000
  C     -0.930000    0.687000    0.064000
  H     -0.994000   -0.314000    0.490000
  H     -1.755000    1.294000    0.438000
  H     -0.990000    0.624000   -1.023000
  C      0.516000    1.486000    1.984000
  O      0.884000    0.562000    2.706000
  N      0.144000    2.663000    2.481000
  H      0.059000    3.431000    1.831000
  C     -0.033000    2.938000    3.907000
  H      0.206000    2.044000    4.483000
  C      0.889000    4.079000    4.366000
  H      0.885000    4.092000    5.456000
  H      1.895000    3.858000    4.009000
  C      0.449000    5.450000    3.837000
  H      0.284000    5.397000    2.761000
  H     -0.492000    5.675000    4.338000
  C      1.463000    6.550000    4.142000
  O      1.699000    7.369000    3.225000
  O      1.970000    6.621000    5.279000
  C     -1.508000    3.209000    4.218000
  O     -2.227000    3.811000    3.417000
  N     -1.976000    2.756000    5.382000
  H     -1.394000    2.155000    5.948000
  C     -3.339000    3.027000    5.835000
  H     -4.043000    2.893000    5.014000
  C     -3.708000    2.056000    6.960000
  H     -3.555000    1.039000    6.598000
  H     -3.045000    2.244000    7.805000
  C     -5.165000    2.226000    7.406000
  H     -5.307000    3.233000    7.799000
  H     -5.824000    2.074000    6.551000
  C     -5.497000    1.204000    8.492000
  H     -5.489000    0.200000    8.068000
  H     -4.760000    1.265000    9.293000
  C     -6.884000    1.508000    9.053000
  H     -6.878000    2.513000    9.474000
  H     -7.608000    1.459000    8.240000
  N     -7.257000    0.535000   10.105000
  H     -6.586000    0.580000   10.859000
  H     -8.176000    0.758000   10.459000
  H     -7.263000   -0.397000    9.715000
  C     -3.450000    4.491000    6.259000
  O     -2.645000    4.960000    7.058000
  N     -4.476000    5.174000    5.769000
  H     -4.958000    4.765000    4.981000
  C     -4.836000    6.537000    6.173000
  H     -4.218000    6.865000    7.009000
  C     -4.674000    7.545000    5.014000
  H     -4.945000    8.537000    5.376000
  C     -3.229000    7.568000    4.493000
  H     -2.957000    6.577000    4.131000
  H     -3.148000    8.287000    3.678000
  H     -2.556000    7.857000    5.300000
  C     -5.585000    7.285000    3.815000
  H     -6.627000    7.333000    4.132000
  H     -5.404000    8.040000    3.050000
  H     -5.375000    6.297000    3.406000
  C     -6.222000    6.521000    6.827000
  O     -7.060000    5.680000    6.479000
  N     -6.413000    7.372000    7.840000
  H     -5.609000    7.891000    8.163000
  C     -7.674000    7.492000    8.598000
  H     -7.985000    6.507000    8.947000
  C     -7.498000    8.418000    9.824000
  H     -7.098000    9.367000    9.467000
  H     -8.484000    8.581000   10.260000
  C     -6.553000    7.832000   10.895000
  H     -6.868000    6.812000   11.116000
  H     -5.561000    7.816000   10.443000
  C     -6.509000    8.652000   12.205000
  O     -6.470000    8.014000   13.285000
  O     -6.482000    9.903000   12.133000
  C     -8.858000    7.916000    7.715000
  O     -8.689000    8.791000    6.831000
  O     -9.921000    7.282000    7.904000

----------------------------
CARTESIAN COORDINATES (A.U.)
----------------------------
  NO LB      ZA    FRAG     MASS         X           Y           Z
   0 N     7.0000    0    14.007  -22.474513    2.587035    9.253989
   1 H     1.0000    0     1.008  -22.680493    2.855376    7.375601
   2 H     1.0000    0     1.008  -23.963617    3.371271   10.153499
   3 H     1.0000    0     1.008  -22.026648    0.757780    9.567683
   4 C     6.0000    0    12.011  -20.233298    4.057242   10.106255
   5 H     1.0000    0     1.008  -20.798326    5.434852   11.529219
   6 C     6.0000    0    12.011  -18.245306    2.282789   11.270327
   7 H     1.0000    0     1.008  -17.676498    0.910848    9.843583
   8 H     1.0000    0     1.008  -16.612582    3.407176   11.829686
   9 C     6.0000    0    12.011  -19.297883    0.888171   13.585241
  10 H     1.0000    0     1.008  -19.719292    2.311135   15.013874
  11 H     1.0000    0     1.008  -21.043990   -0.034015   12.999426
  12 S    16.0000    0    32.060  -17.185169   -1.447530   14.915608
  13 C     6.0000    0    12.011  -19.118359   -2.528454   17.527210
  14 H     1.0000    0     1.008  -20.883364   -3.301352   16.801555
  15 H     1.0000    0     1.008  -18.109246   -3.989212   18.572228
  16 H     1.0000    0     1.008  -19.526540   -0.946753   18.781988
  17 C     6.0000    0    12.011  -19.186389    5.527449    7.842363
  18 O     8.0000    0    15.999  -20.295659    5.342256    5.809018
  19 N     7.0000    0    14.007  -17.162493    7.014663    8.118263
  20 H     1.0000    0     1.008  -16.565339    7.458749    9.875709
  21 C     6.0000    0    12.011  -15.877479    8.188183    5.956417
  22 H     1.0000    0     1.008  -16.673054    7.473867    4.195192
  23 C     6.0000    0    12.011  -16.215740   11.062457    6.026337
  24 H     1.0000    0     1.008  -15.762206   11.716302    7.927401
  25 H     1.0000    0     1.008  -14.896711   11.897716    4.680852
  26 C     6.0000    0    12.011  -18.910489   11.858031    5.351704
  27 H     1.0000    0     1.008  -19.382921   11.109700    3.492214
  28 H     1.0000    0     1.008  -20.206842   11.081354    6.751991
  29 C     6.0000    0    12.011  -19.142926   14.739864    5.317689
  30 H     1.0000    0     1.008  -18.693171   15.499534    7.179070
  31 H     1.0000    0     1.008  -17.848463   15.529769    3.923071
  32 C     6.0000    0    12.011  -21.860352   15.444732    4.618491
  33 H     1.0000    0     1.008  -22.283651   14.668054    2.759000
  34 H     1.0000    0     1.008  -23.132138   14.618921    6.011219
  35 N     7.0000    0    14.007  -22.206172   18.216960    4.569358
  36 H     1.0000    0     1.008  -21.026983   18.982299    3.276785
  37 H     1.0000    0     1.008  -24.010860   18.625141    4.104485
  38 H     1.0000    0     1.008  -21.814998   18.936946    6.292788
  39 C     6.0000    0    12.011  -13.105251    7.426624    5.886497
  40 O     8.0000    0    15.999  -11.937400    7.027891    7.853702
  41 N     7.0000    0    14.007  -12.079129    7.218754    3.609377
  42 H     1.0000    0     1.008  -13.216745    7.487095    2.099486
  43 C     6.0000    0    12.011   -9.452410    6.517665    3.157732
  44 H     1.0000    0     1.008   -8.371487    6.655615    4.905729
  45 C     6.0000    0    12.011   -9.320129    3.790791    2.201531
  46 H     1.0000    0     1.008  -10.380266    3.626384    0.444086
  47 H     1.0000    0     1.008   -7.354814    3.273006    1.867049
  48 H     1.0000    0     1.008  -10.130822    2.528454    3.611267
  49 C     6.0000    0    12.011   -8.258103    8.348810    1.288793
  50 O     8.0000    0    15.999   -9.310681    8.772109   -0.740773
  51 N     7.0000    0    14.007   -6.067911    9.405167    1.942638
  52 H     1.0000    0     1.008   -5.440522    9.108480    3.720871
  53 C     6.0000    0    12.011   -4.601483   11.075685    0.294797
  54 H     1.0000    0     1.008   -5.729650   11.621816   -1.339816
  55 C     6.0000    0    12.011   -3.836144   13.471858    1.734769
  56 H     1.0000    0     1.008   -5.535008   14.392154    2.447195
  57 H     1.0000    0     1.008   -2.628609   12.940845    3.318359
  58 C     6.0000    0    12.011   -2.401842   15.301113   -0.003779
  59 H     1.0000    0     1.008   -0.657625   14.382706   -0.602823
  60 H     1.0000    0     1.008   -3.579141   15.677168   -1.651621
  61 C     6.0000    0    12.011   -1.774453   17.782323    1.311470
  62 H     1.0000    0     1.008   -1.201866   19.159933   -0.107714
  63 H     1.0000    0     1.008   -3.456309   18.460735    2.286569
  64 N     7.0000    0    14.007    0.287238   17.506423    3.170960
  65 H     1.0000    0     1.008    0.432747   15.805669    4.025117
  66 C     6.0000    0    12.011    1.882167   19.301663    3.819137
  67 N     7.0000    0    14.007    1.986102   21.442722    2.613491
  68 H     1.0000    0     1.008    0.820141   21.756417    1.135725
  69 H     1.0000    0     1.008    3.233321   22.780649    3.161512
  70 N     7.0000    0    14.007    3.446860   18.936946    5.672958
  71 H     1.0000    0     1.008    3.433632   17.275876    6.612152
  72 H     1.0000    0     1.008    4.669513   20.316446    6.168066
  73 C     6.0000    0    12.011   -2.309245    9.692405   -0.752111
  74 O     8.0000    0    15.999   -0.865495    8.581246    0.682191
  75 N     7.0000    0    14.007   -1.921851    9.826576   -3.227652
  76 H     1.0000    0     1.008   -3.312690   10.487980   -4.353929
  77 C     6.0000    0    12.011    0.415740    8.964861   -4.406841
  78 H     1.0000    0     1.008    0.914627    7.077024   -3.752996
  79 C     6.0000    0    12.011    0.011338    8.874154   -7.273556
  80 H     1.0000    0     1.008   -1.508001    7.592920   -7.815907
  81 H     1.0000    0     1.008   -0.340151   10.735534   -8.080469
  82 S    16.0000    0    32.060    2.845928    7.693075   -8.806124
  83 H     1.0000    0     1.008    1.952087    7.827246  -11.151274
  84 C     6.0000    0    12.011    2.598373   10.741203   -3.683076
  85 O     8.0000    0    15.999    2.545461   12.961632   -4.363378
  86 N     7.0000    0    14.007    4.575027    9.754766   -2.452865
  87 H     1.0000    0     1.008    4.446526    7.916063   -1.955867
  88 C     6.0000    0    12.011    6.861596   11.170171   -1.708312
  89 H     1.0000    0     1.008    6.353259   12.823682   -0.589595
  90 C     6.0000    0    12.011    8.569908    9.448631   -0.100155
  91 H     1.0000    0     1.008    8.840139    7.708193   -1.167851
  92 H     1.0000    0     1.008   10.376486   10.418060    0.100155
  93 C     6.0000    0    12.011    7.513551    8.813683    2.536012
  94 H     1.0000    0     1.008    7.349145   10.552231    3.628274
  95 H     1.0000    0     1.008    5.650281    7.959526    2.322473
  96 C     6.0000    0    12.011    9.278555    6.957972    3.924961
  97 H     1.0000    0     1.008   11.236312    7.511661    3.607487
  98 H     1.0000    0     1.008    8.870374    7.008994    5.943189
  99 C     6.0000    0    12.011    8.860926    4.267002    2.921517
 100 H     1.0000    0     1.008    7.417175    3.414735    4.117713
 101 H     1.0000    0     1.008    8.133381    4.465423    1.005334
 102 N     7.0000    0    14.007   11.138046    2.626719    2.893171
 103 H     1.0000    0     1.008   11.810788    2.441526    4.669513
 104 H     1.0000    0     1.008   10.675063    0.907069    2.207200
 105 H     1.0000    0     1.008   12.475972    3.414735    1.783901
 106 C     6.0000    0    12.011    8.386605   12.192513   -3.957087
 107 O     8.0000    0    15.999   10.028777   13.787442   -3.603708
 108 N     7.0000    0    14.007    7.900945   11.234422   -6.245545
 109 H     1.0000    0     1.008    6.521445    9.919172   -6.360818
 110 C     6.0000    0    12.011    9.344696   11.841024   -8.551011
 111 H     1.0000    0     1.008   11.185289   12.634709   -8.074800
 112 C     6.0000    0    12.011    9.752877    9.437292  -10.153499
 113 H     1.0000    0     1.008    7.899055    8.677622  -10.631599
 114 C     6.0000    0    12.011   11.243870    9.945629  -12.587466
 115 H     1.0000    0     1.008   13.097692   10.705299  -12.111255
 116 H     1.0000    0     1.008   11.470638    8.186294  -13.634374
 117 H     1.0000    0     1.008   10.223418   11.306231  -13.747758
 118 C     6.0000    0    12.011   11.179620    7.422844   -8.636048
 119 H     1.0000    0     1.008   10.091138    6.925846   -6.957972
 120 H     1.0000    0     1.008   11.446071    5.744767   -9.802009
 121 H     1.0000    0     1.008   13.016434    8.161727   -8.067241
 122 C     6.0000    0    12.011    8.110705   13.919723  -10.132712
 123 O     8.0000    0    15.999    9.439182   15.505203  -11.177730
 124 N     7.0000    0    14.007    5.599259   13.889487  -10.395383
 125 H     1.0000    0     1.008    4.610932   12.525105   -9.497764
 126 C     6.0000    0    12.011    4.231097   15.595910  -12.113145
 127 H     1.0000    0     1.008    5.442411   17.162493  -12.681952
 128 C     6.0000    0    12.011    3.429853   14.131372  -14.488530
 129 H     1.0000    0     1.008    2.651286   15.369143  -15.937950
 130 H     1.0000    0     1.008    4.981318   13.035331  -15.284105
 131 S    16.0000    0    32.060    0.956201   11.873149  -13.736419
 132 H     1.0000    0     1.008    0.706758   10.969860  -16.068341
 133 C     6.0000    0    12.011    1.980433   16.969741  -10.903720
 134 O     8.0000    0    15.999    0.529123   18.179165  -12.251095
 135 N     7.0000    0    14.007    1.619495   16.701400   -8.420620
 136 H     1.0000    0     1.008    2.692860   15.359694   -7.591030
 137 C     6.0000    0    12.011   -0.432747   17.846574   -6.940964
 138 H     1.0000    0     1.008   -0.447865   17.052889   -5.039900
 139 C     6.0000    0    12.011   -0.066140   20.728406   -6.742543
 140 H     1.0000    0     1.008    0.168186   21.357685   -8.688961
 141 H     1.0000    0     1.008   -1.732879   21.624136   -5.926181
 142 C     6.0000    0    12.011    2.271451   21.461620   -5.206195
 143 O     8.0000    0    15.999    2.333812   20.798326   -2.921517
 144 O     8.0000    0    15.999    3.907954   22.791987   -6.266332
 145 C     6.0000    0    12.011   -3.146394   17.066117   -7.689296
 146 O     8.0000    0    15.999   -4.977539   18.122474   -6.719866
 147 N     7.0000    0    14.007   -3.480876   15.136706   -9.295563
 148 H     1.0000    0     1.008   -1.967205   14.452625  -10.236646
 149 C     6.0000    0    12.011   -5.977204   14.050114   -9.847363
 150 H     1.0000    0     1.008   -7.141275   15.520321  -10.697740
 151 C     6.0000    0    12.011   -5.737209   11.852362  -11.729530
 152 H     1.0000    0     1.008   -4.590145   10.357589  -10.898051
 153 H     1.0000    0     1.008   -7.609927   11.115369  -12.169836
 154 H     1.0000    0     1.008   -4.841478   12.523215  -13.458630
 155 C     6.0000    0    12.011   -7.322689   13.160053   -7.426624
 156 O     8.0000    0    15.999   -6.183184   11.846693   -5.875159
 157 N     7.0000    0    14.007   -9.760435   13.791221   -7.171511
 158 H     1.0000    0     1.008  -10.489870   14.962852   -8.490540
 159 C     6.0000    0    12.011  -11.370482   13.044780   -5.038010
 160 H     1.0000    0     1.008  -10.287669   12.107475   -3.556465
 161 C     6.0000    0    12.011  -12.791556   15.337017   -3.904174
 162 H     1.0000    0     1.008  -13.968856   16.177945   -5.370602
 163 C     6.0000    0    12.011  -14.467743   14.522545   -1.662959
 164 H     1.0000    0     1.008  -13.292334   13.683507   -0.194642
 165 H     1.0000    0     1.008  -15.444732   16.168497   -0.901399
 166 H     1.0000    0     1.008  -15.852913   13.141156   -2.307356
 167 C     6.0000    0    12.011  -11.015214   17.506423   -3.080254
 168 H     1.0000    0     1.008  -10.053343   18.154599   -4.781007
 169 H     1.0000    0     1.008  -12.222749   19.012535   -2.358378
 170 C     6.0000    0    12.011   -9.051788   16.797776   -1.071475
 171 H     1.0000    0     1.008   -7.844253   15.293554   -1.791460
 172 H     1.0000    0     1.008   -7.900945   18.445617   -0.623610
 173 H     1.0000    0     1.008  -10.013659   16.149600    0.631169
 174 C     6.0000    0    12.011  -13.199737   10.962301   -5.854372
 175 O     8.0000    0    15.999  -14.739864   11.327018   -7.558905
 176 N     7.0000    0    14.007  -13.078795    8.813683   -4.554240
 177 H     1.0000    0     1.008  -11.572683    8.581246   -3.403397
 178 C     6.0000    0    12.011  -14.887262    6.750102   -4.767779
 179 H     1.0000    0     1.008  -16.032437    6.993876   -6.462863
 180 C     6.0000    0    12.011  -13.460519    4.242435   -4.969980
 181 H     1.0000    0     1.008  -12.319125    3.962756   -3.278675
 182 H     1.0000    0     1.008  -14.809784    2.696639   -5.149504
 183 H     1.0000    0     1.008  -12.235977    4.280230   -6.625380
 184 C     6.0000    0    12.011  -16.707069    6.755771   -2.513336
 185 O     8.0000    0    15.999  -15.890707    6.884272   -0.332592
 186 N     7.0000    0    14.007  -19.163713    6.551681   -3.021672
 187 H     1.0000    0     1.008  -19.707954    6.727425   -4.843368
 188 C     6.0000    0    12.011  -21.119579    6.215309   -1.094151
 189 H     1.0000    0     1.008  -20.375027    6.774668    0.742662
 190 C     6.0000    0    12.011  -23.459060    7.832915   -1.678077
 191 H     1.0000    0     1.008  -24.160149    7.311350   -3.543237
 192 H     1.0000    0     1.008  -24.900921    7.424734   -0.264562
 193 C     6.0000    0    12.011  -22.841120   10.669394   -1.636503
 194 H     1.0000    0     1.008  -21.937831   10.865925    0.204090
 195 H     1.0000    0     1.008  -21.514532   11.221194   -3.112379
 196 C     6.0000    0    12.011  -25.180601   12.377706   -1.751776
 197 O     8.0000    0    15.999  -24.919819   14.494199   -2.774118
 198 O     8.0000    0    15.999  -27.128908   11.695515   -0.604712
 199 C     6.0000    0    12.011  -21.809329    3.414735   -0.903289
 200 O     8.0000    0    15.999  -22.716398    2.284679   -2.715536
 201 N     7.0000    0    14.007  -21.359574    2.288458    1.302021
 202 H     1.0000    0     1.008  -20.743524    3.354264    2.760890
 203 C     6.0000    0    12.011  -21.714843   -0.413850    1.715871
 204 H     1.0000    0     1.008  -23.733071   -0.825810    1.715871
 205 H     1.0000    0     1.008  -20.803995   -1.445640    0.183303
 206 C     6.0000    0    12.011  -20.584787   -1.268006    4.221648
 207 O     8.0000    0    15.999  -19.199618    0.122832    5.472647
 208 N     7.0000    0    14.007  -21.217845   -3.541347    5.066356
 209 H     1.0000    0     1.008  -22.608683   -4.522115    4.204641
 210 C     6.0000    0    12.011  -20.174716   -4.542902    7.434183
 211 H     1.0000    0     1.008  -19.913934   -3.023562    8.800455
 212 C     6.0000    0    12.011  -22.007751   -6.485540    8.549121
 213 H     1.0000    0     1.008  -22.398924   -7.978424    7.184739
 214 H     1.0000    0     1.008  -21.108241   -7.298122   10.213970
 215 C     6.0000    0    12.011  -24.492740   -5.206195    9.322019
 216 O     8.0000    0    15.999  -24.368018   -2.998995   10.225308
 217 O     8.0000    0    15.999  -26.484512   -6.408061    8.940294
 218 C     6.0000    0    12.011  -17.459180   -5.518000    7.137496
 219 O     8.0000    0    15.999  -16.062672   -5.654061    8.989427
 220 N     7.0000    0    14.007  -16.635259   -5.992322    4.801794
 221 H     1.0000    0     1.008  -17.935391   -5.795790    3.418515
 222 C     6.0000    0    12.011  -14.095467   -6.846478    4.104485
 223 H     1.0000    0     1.008  -12.795336   -6.619711    5.686186
 224 C     6.0000    0    12.011  -14.212630   -9.665949    3.393948
 225 H     1.0000    0     1.008  -15.508982   -9.875709    1.806578
 226 H     1.0000    0     1.008  -12.326684  -10.263103    2.821361
 227 C     6.0000    0    12.011  -15.119699  -11.311901    5.608707
 228 H     1.0000    0     1.008  -13.874369  -11.011434    7.222533
 229 H     1.0000    0     1.008  -17.041550  -10.769549    6.115154
 230 C     6.0000    0    12.011  -15.098912  -14.108695    4.941634
 231 O     8.0000    0    15.999  -16.722187  -15.068676    3.626384
 232 N     7.0000    0    14.007  -13.269657  -15.544887    5.818467
 233 H     1.0000    0     1.008  -13.235642  -17.404378    5.389499
 234 H     1.0000    0     1.008  -11.909054  -14.781438    6.916398
 235 C     6.0000    0    12.011  -13.063677   -5.234541    1.908623
 236 O     8.0000    0    15.999  -14.581127   -4.161177    0.502667
 237 N     7.0000    0    14.007  -10.548451   -4.996436    1.594929
 238 C     6.0000    0    12.011   -8.547231   -6.107595    3.131276
 239 H     1.0000    0     1.008   -8.964861   -8.110705    3.361823
 240 H     1.0000    0     1.008   -8.577467   -5.185409    4.971869
 241 C     6.0000    0    12.011   -6.075470   -5.646502    1.708312
 242 H     1.0000    0     1.008   -5.561464   -7.300012    0.591484
 243 H     1.0000    0     1.008   -4.552350   -5.206195    3.023562
 244 C     6.0000    0    12.011   -6.668844   -3.380720    0.024566
 245 H     1.0000    0     1.008   -5.533118   -3.486545   -1.691305
 246 H     1.0000    0     1.008   -6.398613   -1.542017    0.912738
 247 C     6.0000    0    12.011   -9.459969   -3.764334   -0.619830
 248 H     1.0000    0     1.008  -10.393494   -1.950197   -0.907069
 249 C     6.0000    0    12.011   -9.819017   -5.423514   -2.983878
 250 O     8.0000    0    15.999  -10.144050   -7.721421   -2.747662
 251 N     7.0000    0    14.007   -9.724531   -4.325583   -5.272336
 252 C     6.0000    0    12.011   -9.259658   -1.666738   -5.814687
 253 H     1.0000    0     1.008   -7.621265   -1.063916   -4.720536
 254 H     1.0000    0     1.008  -10.913168   -0.589595   -5.223203
 255 C     6.0000    0    12.011   -8.808014   -1.515560   -8.664394
 256 H     1.0000    0     1.008   -6.797345   -1.630834   -9.097142
 257 H     1.0000    0     1.008   -9.577132    0.232436   -9.437292
 258 C     6.0000    0    12.011  -10.238536   -3.811578   -9.681067
 259 H     1.0000    0     1.008   -9.369262   -4.465423  -11.430953
 260 H     1.0000    0     1.008  -12.247315   -3.482765   -9.994762
 261 C     6.0000    0    12.011   -9.875709   -5.792011   -7.602368
 262 H     1.0000    0     1.008  -11.515991   -7.031671   -7.492764
 263 C     6.0000    0    12.011   -7.479536   -7.390719   -7.999211
 264 O     8.0000    0    15.999   -5.427293   -6.636718   -7.214974
 265 N     7.0000    0    14.007   -7.702524   -9.533668   -9.331468
 266 H     1.0000    0     1.008   -9.444851  -10.074130   -9.892716
 267 C     6.0000    0    12.011   -5.531228  -11.158833  -10.000431
 268 H     1.0000    0     1.008   -4.529674  -11.720081   -8.290229
 269 C     6.0000    0    12.011   -6.432628  -13.556895  -11.378041
 270 H     1.0000    0     1.008   -7.536228  -12.948403  -13.006985
 271 H     1.0000    0     1.008   -4.752661  -14.558450  -12.024327
 272 C     6.0000    0    12.011   -8.033226  -15.320010   -9.732090
 273 H     1.0000    0     1.008   -7.008994  -15.722521   -7.991652
 274 H     1.0000    0     1.008   -9.807679  -14.377036   -9.280445
 275 C     6.0000    0    12.011   -8.585026  -17.806889  -11.128597
 276 O     8.0000    0    15.999   -7.562684  -19.779763  -10.317905
 277 O     8.0000    0    15.999  -10.032556  -17.706734  -12.997536
 278 C     6.0000    0    12.011   -3.613156   -9.828466  -11.721971
 279 O     8.0000    0    15.999   -1.381390  -10.457744  -11.725751
 280 N     7.0000    0    14.007   -4.474871   -7.991652  -13.218634
 281 H     1.0000    0     1.008   -6.362708   -7.717642  -13.275326
 282 C     6.0000    0    12.011   -2.874273   -6.434517  -14.849468
 283 H     1.0000    0     1.008   -0.967540   -6.383495  -14.070901
 284 C     6.0000    0    12.011   -2.745772   -7.500323  -17.563115
 285 H     1.0000    0     1.008   -4.648726   -7.524889  -18.351130
 286 C     6.0000    0    12.011   -1.028011   -5.884607  -19.241191
 287 H     1.0000    0     1.008    0.874943   -5.860041  -18.455065
 288 H     1.0000    0     1.008   -0.975099   -6.682072  -21.140366
 289 H     1.0000    0     1.008   -1.761225   -3.960866  -19.324339
 290 C     6.0000    0    12.011   -1.700754  -10.204521  -17.651932
 291 H     1.0000    0     1.008   -2.912068  -11.446071  -16.542663
 292 H     1.0000    0     1.008   -1.651621  -10.858366  -19.604019
 293 H     1.0000    0     1.008    0.205980  -10.230977  -16.871475
 294 C     6.0000    0    12.011   -3.900395   -3.747327  -14.843799
 295 O     8.0000    0    15.999   -6.168066   -3.331587  -15.189619
 296 N     7.0000    0    14.007   -2.244995   -1.882167  -14.505538
 297 H     1.0000    0     1.008   -0.453534   -2.299797  -13.995312
 298 C     6.0000    0    12.011   -2.947973    0.765339  -14.749312
 299 H     1.0000    0     1.008   -4.544791    1.196197  -13.520990
 300 C     6.0000    0    12.011   -0.712427    2.435857  -13.980194
 301 H     1.0000    0     1.008   -0.134171    2.156178  -12.022438
 302 H     1.0000    0     1.008    0.920297    2.212869  -15.216075
 303 S    16.0000    0    32.060   -1.655400    5.725870  -14.233417
 304 H     1.0000    0     1.008    0.544241    6.687741  -13.488865
 305 C     6.0000    0    12.011   -3.788901    1.332257  -17.479967
 306 O     8.0000    0    15.999   -2.254443    1.050688  -19.212846
 307 N     7.0000    0    14.007   -6.113264    2.277120  -17.916493
 308 C     6.0000    0    12.011   -8.019998    2.913958  -16.036216
 309 H     1.0000    0     1.008   -7.126157    4.059132  -14.575458
 310 H     1.0000    0     1.008   -8.715417    1.162182  -15.204736
 311 C     6.0000    0    12.011  -10.077909    4.346370  -17.462959
 312 H     1.0000    0     1.008   -9.703744    6.372157  -17.470518
 313 H     1.0000    0     1.008  -11.933621    3.994881  -16.639039
 314 C     6.0000    0    12.011   -9.902165    3.233321  -20.119914
 315 H     1.0000    0     1.008  -10.578687    4.548571  -21.552327
 316 H     1.0000    0     1.008  -10.930176    1.455089  -20.282431
 317 C     6.0000    0    12.011   -7.067576    2.770339  -20.469513
 318 H     1.0000    0     1.008   -6.770889    1.062026  -21.582562
 319 C     6.0000    0    12.011   -5.767444    5.013443  -21.775314
 320 O     8.0000    0    15.999   -6.175625    5.431073  -24.020309
 321 N     7.0000    0    14.007   -4.246215    6.477981  -20.384476
 322 H     1.0000    0     1.008   -4.127162    6.098146  -18.517426
 323 C     6.0000    0    12.011   -2.921517    8.713527  -21.359574
 324 H     1.0000    0     1.008   -3.715202    9.297453  -23.168042
 325 C     6.0000    0    12.011   -3.155843   10.926397  -19.481187
 326 H     1.0000    0     1.008   -2.360268   10.321684  -17.680278
 327 C     6.0000    0    12.011   -1.770673   13.298003  -20.399594
 328 H     1.0000    0     1.008   -2.564358   13.904605  -22.200503
 329 H     1.0000    0     1.008   -1.991771   14.804115  -19.012535
 330 H     1.0000    0     1.008    0.230547   12.874704  -20.639589
 331 C     6.0000    0    12.011   -5.937520   11.629375  -19.040881
 332 H     1.0000    0     1.008   -6.944744   10.004210  -18.273652
 333 H     1.0000    0     1.008   -6.049013   13.195958  -17.708624
 334 H     1.0000    0     1.008   -6.797345   12.186844  -20.828561
 335 C     6.0000    0    12.011   -0.164406    8.139050  -22.013420
 336 O     8.0000    0    15.999    0.691640    8.859036  -24.042986
 337 N     7.0000    0    14.007    1.247219    6.854037  -20.350461
 338 H     1.0000    0     1.008    0.457314    6.336252  -18.691281
 339 C     6.0000    0    12.011    3.972204    6.417510  -20.705729
 340 H     1.0000    0     1.008    4.561799    7.058127  -22.572779
 341 C     6.0000    0    12.011    5.457529    7.900945  -18.706399
 342 H     1.0000    0     1.008    7.490874    7.791341  -19.014424
 343 H     1.0000    0     1.008    4.883052    9.877599  -18.625141
 344 S    16.0000    0    32.060    4.900060    6.619711  -15.580792
 345 H     1.0000    0     1.008    6.381605    8.244875  -14.363808
 346 C     6.0000    0    12.011    4.784787    3.630164  -20.807774
 347 O     8.0000    0    15.999    6.982538    3.119938  -21.344457
 348 N     7.0000    0    14.007    3.080254    1.829255  -20.333453
 349 H     1.0000    0     1.008    1.353044    2.352709  -19.711733
 350 C     6.0000    0    12.011    3.592369   -0.874943  -20.669824
 351 H     1.0000    0     1.008    1.759335   -1.782012  -20.913599
 352 H     1.0000    0     1.008    4.677072   -1.043129  -22.414042
 353 C     6.0000    0    12.011    5.028561   -2.209090  -18.534434
 354 O     8.0000    0    15.999    5.671068   -4.416290  -18.834900
 355 N     7.0000    0    14.007    5.548236   -0.954312  -16.406602
 356 H     1.0000    0     1.008    5.245880    0.929745  -16.365028
 357 C     6.0000    0    12.011    6.733094   -2.156178  -14.176725
 358 H     1.0000    0     1.008    8.180624   -3.513001  -14.730415
 359 C     6.0000    0    12.011    7.927401   -0.205980  -12.381486
 360 H     1.0000    0     1.008    8.777778   -1.194307  -10.786557
 361 C     6.0000    0    12.011    9.960746    1.326588  -13.762875
 362 H     1.0000    0     1.008    9.112259    2.314915  -15.357804
 363 H     1.0000    0     1.008   10.786557    2.698529  -12.466523
 364 H     1.0000    0     1.008   11.430953    0.056692  -14.446956
 365 C     6.0000    0    12.011    5.956417    1.577921  -11.223084
 366 H     1.0000    0     1.008    4.582586    0.479990  -10.149719
 367 H     1.0000    0     1.008    6.893721    2.917737   -9.970195
 368 H     1.0000    0     1.008    4.990767    2.604043  -12.725416
 369 C     6.0000    0    12.011    4.888722   -3.855041  -12.731085
 370 O     8.0000    0    15.999    2.592704   -3.511111  -12.938955
 371 N     7.0000    0    14.007    5.892166   -5.633274  -11.249540
 372 H     1.0000    0     1.008    7.795120   -5.780672  -11.217414
 373 C     6.0000    0    12.011    4.416290   -7.368042   -9.681067
 374 H     1.0000    0     1.008    2.889391   -8.105035  -10.850807
 375 H     1.0000    0     1.008    5.665399   -8.911948   -9.131157
 376 C     6.0000    0    12.011    3.278675   -6.169956   -7.283005
 377 O     8.0000    0    15.999    3.726540   -3.940079   -6.729315
 378 N     7.0000    0    14.007    1.783901   -7.625045   -5.816577
 379 C     6.0000    0    12.011    1.332257  -10.317905   -6.164287
 380 H     1.0000    0     1.008    3.125607  -11.211745   -6.640498
 381 H     1.0000    0     1.008    0.013228  -10.548451   -7.730870
 382 C     6.0000    0    12.011    0.253223  -11.266547   -3.673628
 383 H     1.0000    0     1.008    1.749886  -11.818347   -2.369717
 384 H     1.0000    0     1.008   -1.020452  -12.857697   -3.966535
 385 C     6.0000    0    12.011   -1.184858   -8.961081   -2.711757
 386 H     1.0000    0     1.008   -1.358713   -8.974309   -0.659514
 387 H     1.0000    0     1.008   -3.055687   -8.798565   -3.558354
 388 C     6.0000    0    12.011    0.474321   -6.736874   -3.545126
 389 H     1.0000    0     1.008   -0.689750   -5.126827   -4.093147
 390 C     6.0000    0    12.011    2.271451   -5.946968   -1.404067
 391 O     8.0000    0    15.999    1.553355   -4.435187    0.202201
 392 N     7.0000    0    14.007    4.614711   -6.886162   -1.375721
 393 H     1.0000    0     1.008    4.971869   -8.303457   -2.604043
 394 C     6.0000    0    12.011    6.612152   -6.160507    0.413850
 395 H     1.0000    0     1.008    5.935630   -6.372157    2.348930
 396 C     6.0000    0    12.011    8.951633   -7.866930    0.051023
 397 H     1.0000    0     1.008   10.179955   -7.466308    1.655400
 398 H     1.0000    0     1.008    8.250544   -9.798230    0.190862
 399 C     6.0000    0    12.011   10.459634   -7.555125   -2.432078
 400 H     1.0000    0     1.008   10.569238   -5.525559   -2.772228
 401 H     1.0000    0     1.008   12.347471   -8.292118   -2.067360
 402 C     6.0000    0    12.011    9.340916   -8.872264   -4.777228
 403 O     8.0000    0    15.999   10.584356   -8.804234   -6.784117
 404 O     8.0000    0    15.999    7.237651   -9.939959   -4.593924
 405 C     6.0000    0    12.011    7.328358   -3.346705    0.253223
 406 O     8.0000    0    15.999    8.362038   -2.248774    2.042794
 407 N     7.0000    0    14.007    6.682072   -2.125942   -1.861380
 408 H     1.0000    0     1.008    6.196412   -3.199306   -3.363713
 409 C     6.0000    0    12.011    7.031671    0.578256   -2.248774
 410 H     1.0000    0     1.008    8.369597    1.300132   -0.859825
 411 C     6.0000    0    12.011    8.055903    1.139505   -4.901950
 412 H     1.0000    0     1.008    6.742543    0.311805   -6.254994
 413 H     1.0000    0     1.008    8.076689    3.186078   -5.132496
 414 C     6.0000    0    12.011   10.726086    0.083148   -5.372491
 415 H     1.0000    0     1.008   10.463414   -1.959646   -5.338476
 416 H     1.0000    0     1.008   11.434733    0.651956   -7.220644
 417 C     6.0000    0    12.011   12.646047    0.850377   -3.318359
 418 O     8.0000    0    15.999   14.341132   -0.670853   -2.721206
 419 O     8.0000    0    15.999   12.368258    2.919627   -2.173185
 420 C     6.0000    0    12.011    4.737543    2.190193   -1.513671
 421 O     8.0000    0    15.999    4.707308    4.463533   -2.022007
 422 N     7.0000    0    14.007    2.876163    1.111159   -0.198421
 423 H     1.0000    0     1.008    2.857266   -0.793685   -0.077479
 424 C     6.0000    0    12.011    0.755890    2.511446    0.880612
 425 H     1.0000    0     1.008    0.840928    4.406841    0.077479
 426 C     6.0000    0    12.011   -1.757445    1.298242    0.120942
 427 H     1.0000    0     1.008   -1.878388   -0.593374    0.925966
 428 H     1.0000    0     1.008   -3.316469    2.445306    0.827700
 429 H     1.0000    0     1.008   -1.870829    1.179189   -1.933190
 430 C     6.0000    0    12.011    0.975099    2.808133    3.749217
 431 O     8.0000    0    15.999    1.670518    1.062026    5.113599
 432 N     7.0000    0    14.007    0.272121    5.032341    4.688411
 433 H     1.0000    0     1.008    0.111494    6.483650    3.460089
 434 C     6.0000    0    12.011   -0.062361    5.552015    7.383160
 435 H     1.0000    0     1.008    0.389284    3.862600    8.471642
 436 C     6.0000    0    12.011    1.679967    7.708193    8.250544
 437 H     1.0000    0     1.008    1.672408    7.732759   10.310346
 438 H     1.0000    0     1.008    3.581031    7.290563    7.575912
 439 C     6.0000    0    12.011    0.848487   10.299007    7.250879
 440 H     1.0000    0     1.008    0.536682   10.198852    5.217534
 441 H     1.0000    0     1.008   -0.929745   10.724196    8.197632
 442 C     6.0000    0    12.011    2.764669   12.377706    7.827246
 443 O     8.0000    0    15.999    3.210645   13.925392    6.094367
 444 O     8.0000    0    15.999    3.722760   12.511877    9.975864
 445 C     6.0000    0    12.011   -2.849707    6.064131    7.970865
 446 O     8.0000    0    15.999   -4.208420    7.201746    6.457194
 447 N     7.0000    0    14.007   -3.734099    5.208085   10.170506
 448 H     1.0000    0     1.008   -2.634278    4.072360   11.240091
 449 C     6.0000    0    12.011   -6.309796    5.720201   11.026552
 450 H     1.0000    0     1.008   -7.640163    5.466978    9.475087
 451 C     6.0000    0    12.011   -7.007105    3.885277   13.152494
 452 H     1.0000    0     1.008   -6.717976    1.963425   12.468413
 453 H     1.0000    0     1.008   -5.754216    4.240545   14.749312
 454 C     6.0000    0    12.011   -9.760435    4.206530   13.995312
 455 H     1.0000    0     1.008  -10.028777    6.109485   14.737974
 456 H     1.0000    0     1.008  -11.005765    3.919292   12.379596
 457 C     6.0000    0    12.011  -10.387825    2.275230   16.047554
 458 H     1.0000    0     1.008  -10.372707    0.377945   15.246310
 459 H     1.0000    0     1.008   -8.995096    2.390504   17.561225
 460 C     6.0000    0    12.011  -13.008875    2.849707   17.107691
 461 H     1.0000    0     1.008  -12.997536    4.748882   17.903265
 462 H     1.0000    0     1.008  -14.377036    2.757110   15.571343
 463 N     7.0000    0    14.007  -13.713743    1.011003   19.095683
 464 H     1.0000    0     1.008  -12.445736    1.096041   20.520536
 465 H     1.0000    0     1.008  -15.450401    1.432412   19.764646
 466 H     1.0000    0     1.008  -13.725081   -0.750221   18.358689
 467 C     6.0000    0    12.011   -6.519555    8.486760   11.827796
 468 O     8.0000    0    15.999   -4.998326    9.373042   13.337687
 469 N     7.0000    0    14.007   -8.458414    9.777443   10.901830
 470 H     1.0000    0     1.008   -9.369262    9.004545    9.412726
 471 C     6.0000    0    12.011   -9.138716   12.353140   11.665279
 472 H     1.0000    0     1.008   -7.970865   12.972970   13.245090
 473 C     6.0000    0    12.011   -8.832580   14.257984    9.475087
 474 H     1.0000    0     1.008   -9.344696   16.132592   10.159168
 475 C     6.0000    0    12.011   -6.101926   14.301447    8.490540
 476 H     1.0000    0     1.008   -5.587920   12.428729    7.806459
 477 H     1.0000    0     1.008   -5.948858   15.660160    6.950413
 478 H     1.0000    0     1.008   -4.830140   14.847578   10.015549
 479 C     6.0000    0    12.011  -10.554120   13.766655    7.209305
 480 H     1.0000    0     1.008  -12.523215   13.857362    7.808348
 481 H     1.0000    0     1.008  -10.212080   15.193398    5.763665
 482 H     1.0000    0     1.008  -10.157278   11.899605    6.436407
 483 C     6.0000    0    12.011  -11.757876   12.322904   12.901160
 484 O     8.0000    0    15.999  -13.341467   10.733644   12.243536
 485 N     7.0000    0    14.007  -12.118814   13.931061   14.815453
 486 H     1.0000    0     1.008  -10.599474   14.911829   15.425834
 487 C     6.0000    0    12.011  -14.501758   14.157828   16.247865
 488 H     1.0000    0     1.008  -15.089463   12.296448   16.907380
 489 C     6.0000    0    12.011  -14.169167   15.907715   18.564670
 490 H     1.0000    0     1.008  -13.413276   17.701065   17.890037
 491 H     1.0000    0     1.008  -16.032437   16.215740   19.388590
 492 C     6.0000    0    12.011  -12.383375   14.800335   20.588566
 493 H     1.0000    0     1.008  -12.978639   12.872814   21.006196
 494 H     1.0000    0     1.008  -10.508767   14.770099   19.734410
 495 C     6.0000    0    12.011  -12.300227   16.349911   23.064107
 496 O     8.0000    0    15.999  -12.226528   15.144265   25.105012
 497 O     8.0000    0    15.999  -12.249205   18.713958   22.928047
 498 C     6.0000    0    12.011  -16.739194   14.959072   14.579237
 499 O     8.0000    0    15.999  -16.419830   16.612582   12.908719
 500 O     8.0000    0    15.999  -18.747973   13.760986   14.936395

--------------------------------
INTERNAL COORDINATES (ANGSTROEM)
--------------------------------
 N      0   0   0     0.000000000000     0.00000000     0.00000000
 H      1   0   0     1.009990594016     0.00000000     0.00000000
 H      1   2   0     1.009824242133   108.77858042     0.00000000
 H      1   2   3     1.010321236043   108.76727780   132.26598112
 C      1   2   3     1.488382007416   108.10269022   246.12869919
 H      5   1   2     1.089885773831   109.89995262   120.27246407
 C      5   1   2     1.538792058727   110.30948704   240.00017268
 H      7   5   1     1.089817415900   108.54198907    59.71274191
 H      7   5   1     1.090016972345   108.51227984   178.56324188
 C      7   5   1     1.534769689563   111.39717630   299.14883870
 H     10   7   5     1.090079813592   107.19537851   296.12153573
 H     10   7   5     1.089963302135   107.21394648    53.56766796
 S     10   7   5     1.809208666793   114.50806273   174.85863854
 C     13  10   7     1.812080848086    99.41333707   179.15506316
 H     14  13  10     1.089537975474   109.49066600    60.00058268
 H     14  13  10     1.090180718964   109.52110881   179.98164868
 H     14  13  10     1.090009632985   109.51604901   299.98023746
 C      5   1   2     1.532124015868   108.45901670     3.08270431
 O     18   5   1     1.229613353864   118.10886875     1.47243562
 N     18   5   1     1.337058712249   120.20827311   179.71104587
 H     20  18   5     1.009941087391   119.21844570   346.80754355
 C     20  18   5     1.468596949473   122.32515319   171.47213820
 H     22  20  18     1.090297665778   109.90653042   353.09343798
 C     22  20  18     1.531943536819   110.29876541   112.86394655
 H     24  22  20     1.090574160706   108.15346050    48.49463385
 H     24  22  20     1.090647514094   108.16908710   166.93192943
 C     24  22  20     1.529106274920   112.12848660   287.70325540
 H     27  24  22     1.089757771250   108.94763275   303.07154938
 H     27  24  22     1.090228416434   108.92446241    62.35947686
 C     27  24  22     1.530058168829   110.61760025   182.70941822
 H     30  27  24     1.090171087490   109.83733798   299.42332630
 H     30  27  24     1.090226123334   109.85210601    59.86786493
 C     30  27  24     1.530971260344   108.73437498   179.63401985
 H     33  30  27     1.089657285572   108.62863906   300.19788636
 H     33  30  27     1.089526043746   108.60175150    59.13016946
 N     33  30  27     1.478598660895   111.23688071   179.67365318
 H     36  33  30     1.010572609959   109.45698236    60.00127686
 H     36  33  30     1.009552871325   109.48988772   180.01131913
 H     36  33  30     1.009828698344   109.45589946   300.00722100
 C     22  20  18     1.521797292677   110.69017928   237.50299437
 O     40  22  20     1.228871840348   120.64154033   327.61587646
 N     40  22  20     1.326263171471   116.02305560   147.27694787
 H     42  40  22     1.010430106440   117.57239409   356.90758687
 C     42  40  22     1.458376494599   124.07110292   179.81069756
 H     44  42  40     1.090017431053   110.12385042   345.93921739
 C     44  42  40     1.530746549890   109.72873388   105.48157868
 H     46  44  42     1.089582488846   109.50375389    60.02955929
 H     46  44  42     1.089956421147   109.52932681   180.03035363
 H     46  44  42     1.089394786108   109.49146811   300.03903559
 C     44  42  40     1.522007227315   109.89520353   228.41846903
 O     50  44  42     1.230406843284   119.67810954   308.02248417
 N     50  44  42     1.332470637575   117.35755962   128.80565375
 H     52  50  44     1.010125734748   117.55349936   352.33280951
 C     52  50  44     1.464245880991   124.02857281   175.96395225
 H     54  52  50     1.090025229066   110.02283257    11.57450156
 C     54  52  50     1.533783883081   110.07078326   131.27030251
 H     56  54  52     1.089724277054   108.87459966   303.03049154
 H     56  54  52     1.090653932281   108.87049955    62.26593380
 C     56  54  52     1.536068032348   110.72583177   182.64076932
 H     59  56  54     1.090235754321   108.15279522   296.72638674
 H     59  56  54     1.090006421999   108.16632751    55.15295609
 C     59  56  54     1.522697934588   112.17075787   175.95021237
 H     62  59  56     1.089610480860   108.81425080   194.11175750
 H     62  59  56     1.089604056527   108.81239583   313.31005961
 N     62  59  56     1.476432524703   112.36335738    73.72957477
 H     65  62  59     1.010065839438   116.27538445   329.64961112
 C     65  62  59     1.316238960068   125.17882948   151.15055361
 N     67  65  62     1.301444581993   121.84937855   350.92147123
 H     68  67  65     1.009836125319   119.79563339   359.96989543
 H     68  67  65     1.010427632243   119.79575758   179.98919400
 N     67  65  62     1.298150222432   119.90816250   172.47418323
 H     71  67  65     1.009801465636   119.79686497   359.96716835
 H     71  67  65     1.010026237283   119.81172118   180.00244107
 C     54  52  50     1.521219576524   110.42373682   254.93545254
 O     74  54  52     1.226996740012   120.12045443   308.33925514
 N     74  54  52     1.327842611155   117.17201952   130.57367612
 H     76  74  54     1.009659348493   119.23289651   346.89213077
 C     76  74  54     1.458588701451   122.43057182   169.19727336
 H     78  76  74     1.089684816816   110.86943886    49.14387965
 C     78  76  74     1.532771672494   108.34833140   168.25770403
 H     80  78  76     1.090169252914   112.51939067   300.04317728
 H     80  78  76     1.089564133037   112.54387653    64.28005070
 S     80  78  76     1.816134906883   109.71985502   182.15306616
 H     83  80  78     1.329981578820    96.00227150   179.98625328
 C     78  76  74     1.537632595908   109.83776099   290.57883730
 O     85  78  76     1.229231060460   119.62362757   296.16784999
 N     85  78  76     1.338058668370   118.02751247   120.17215921
 H     87  85  78     1.010208889290   116.73027868   355.42995072
 C     87  85  78     1.476596424213   124.92637567   177.54188067
 H     89  87  85     1.090160538636   110.47699920    54.85911711
 C     89  87  85     1.539914932715   109.17351232   174.26717175
 H     91  89  87     1.089915134311   106.88502433    52.12907168
 H     91  89  87     1.090110544853   106.86760424   169.23838201
 C     91  89  87     1.539935712944   114.61991082   290.68078592
 H     94  91  89     1.089978440154   108.97682115   296.87472194
 H     94  91  89     1.090536106692   108.95188334    56.21393431
 C     94  91  89     1.541721440468   110.54446303   176.53552798
 H     97  94  91     1.089664627305   109.34218609    41.69982311
 H     97  94  91     1.089958256081   109.34775341   161.50804414
 C     97  94  91     1.535766258257   109.79051441   281.62102940
 H    100  97  94     1.089855953785   106.48466094   268.74782284
 H    100  97  94     1.089699958704   106.45331451    25.43575151
 N    100  97  94     1.485151170757   115.38213216   147.11104003
 H    103 100  97     1.009920788973   109.47050426    60.03522430
 H    103 100  97     1.009898014653   109.47728202   179.98652465
 H    103 100  97     1.009812853949   109.47449290   299.98589134
 C     89  87  85     1.536238913711   113.72865524   296.42215678
 O    107  89  87     1.225751198245   119.78358545   166.03264855
 N    107  89  87     1.337766422063   117.82897963   344.21910007
 H    109 107  89     1.010463754917   117.03162798     1.47562315
 C    109 107  89     1.474834566994   124.52870468   185.71936624
 H    111 109 107     1.090220161252   110.82064294    18.94059433
 C    111 109 107     1.543937822582   110.33437606   139.29216627
 H    113 111 109     1.089942200302   107.78451772    58.94123458
 C    113 111 109     1.534218367769   112.86711354   179.90109526
 H    115 113 111     1.089710512017   109.48163051    59.97951530
 H    115 113 111     1.089989449490   109.48451165   180.00818286
 H    115 113 111     1.089493460283   109.51770504   299.98955720
 C    113 111 109     1.533359057755   110.73280288   301.06079359
 H    119 113 111     1.090636969848   109.51105232    60.00899075
 H    119 113 111     1.090465038413   109.48044712   179.98485583
 H    119 113 111     1.090076144129   109.52931722   300.00376363
 C    111 109 107     1.528717763356   112.84557852   263.57754735
 O    123 111 109     1.226351907081   119.62413229   141.50189888
 N    123 111 109     1.336345015331   118.23847249   319.29197806
 H    125 123 111     1.010167312874   118.32927079     1.74516753
 C    125 123 111     1.471688146314   123.10311231   187.65240311
 H    127 125 123     1.090285742363   110.35455738   344.02210872
 C    127 125 123     1.536375605117   109.36577252   103.50046712
 H    129 127 125     1.089521913502   112.15226920   188.27437330
 H    129 127 125     1.089808240013   112.12438173   311.88094862
 S    129 127 125     1.816565440605   110.57567329    70.07473565
 H    132 129 127     1.329911275236    96.00807780   180.02581856
 C    127 125 123     1.535125402044   114.50332505   229.40275225
[...]
    207       O           -2.192        551.717 
    208       N          141.586        104.397 
    209       H           26.097          5.963 
    210       C          133.842         29.774 
    211       H           27.146          6.621 
    212       C          156.377         29.311 
    213       H           29.828          6.910 
    214       H           29.178          4.895 
    215       C           31.662         82.555 
    216       O           68.378        363.239 
    217       O           12.449        386.283 
    218       C           32.652        109.453 
    219       O           29.366        508.732 
    220       N          147.386         89.319 
    221       H           25.741          9.170 
    222       C          140.295         27.094 
    223       H           27.380          6.830 
    224       C          162.658         20.866 
    225       H           30.408          4.273 
    226       H           29.785          7.787 
    227       C          161.835         35.117 
    228       H           29.884          5.224 
    229       H           29.915          5.988 
    230       C           34.454        116.134 
    231       O           20.046        501.078 
    232       N          164.862        111.483 
    233       H           26.768         13.445 
    234       H           26.428          6.895 
    235       C           33.662        101.149 
    236       O           -1.664        532.413 
    237       N          128.594        136.340 
    238       C          149.259         42.500 
    239       H           28.146          9.338 
    240       H           28.368          7.515 
    241       C          170.621         27.423 
    242       H           29.737         11.374 
    243       H           29.630          8.444 
    244       C          166.686         22.341 
    245       H           29.851          7.956 
    246       H           29.723         13.076 
    247       C          133.325         44.630 
    248       H           27.472          5.026 
    249       C           32.905        103.992 
    250       O           -1.557        503.372 
    251       N          129.558        137.160 
    252       C          149.005         41.090 
    253       H           28.341          6.076 
    254       H           28.545         13.255 
    255       C          169.684         25.694 
    256       H           29.921          9.965 
    257       H           29.748          9.358 
    258       C          166.185         24.168 
    259       H           29.680          9.854 
    260       H           29.678          9.432 
    261       C          133.126         41.893 
    262       H           27.706          6.037 
    263       C           29.696        111.485 
    264       O            7.733        525.505 
    265       N          143.038        104.772 
    266       H           26.078          7.480 
    267       C          132.252         22.908 
    268       H           28.178          5.120 
    269       C          160.881         27.093 
    270       H           30.022          5.665 
    271       H           29.841          5.989 
    272       C          156.622         43.354 
    273       H           30.423          5.354 
    274       H           29.735          4.978 
    275       C           30.626         83.209 
    276       O           32.854        326.721 
    277       O           57.456        363.143 
    278       C           32.511        111.140 
    279       O           21.555        487.878 
    280       N          151.252         87.661 
    281       H           25.704          7.050 
    282       C          135.875         19.943 
    283       H           27.660          7.042 
    284       C          156.712         24.803 
    285       H           30.361          4.997 
    286       C          174.211         27.795 
    287       H           31.234          9.047 
    288       H           31.007         10.505 
    289       H           30.853         11.090 
    290       C          171.651         26.930 
    291       H           30.635          8.459 
    292       H           30.948         12.420 
    293       H           31.061          4.202 
    294       C           32.019        111.920 
    295       O           19.520        532.020 
    296       N          137.709        104.518 
    297       H           22.760         11.710 
    298       C          142.565         22.893 
    299       H           27.388          4.035 
    300       C          163.656         17.077 
    301       H           28.446          8.196 
    302       H           28.165          8.771 
    303       S          655.153        268.333 
    304       H           26.987         18.253 
    305       C           32.747        105.152 
    306       O           11.404        508.503 
    307       N          117.802        129.341 
    308       C          148.087         41.100 
    309       H           27.923          6.456 
    310       H           27.844          9.594 
    311       C          170.391         22.975 
    312       H           29.693          7.244 
    313       H           29.628         11.129 
    314       C          164.737         25.309 
    315       H           29.628         10.770 
    316       H           29.509         11.494 
    317       C          130.778         40.073 
    318       H           27.377          6.230 
    319       C           35.153        103.113 
    320       O           26.921        524.172 
    321       N          142.437         85.993 
    322       H           25.171          7.757 
    323       C          130.499         23.617 
    324       H           27.815          5.498 
    325       C          159.534         12.717 
    326       H           29.786         11.657 
    327       C          175.054         23.136 
    328       H           30.916         11.889 
    329       H           30.607          7.298 
    330       H           30.796          4.631 
    331       C          172.862         27.622 
    332       H           30.416          6.522 
    333       H           30.642          8.236 
    334       H           31.143         10.401 
    335       C           33.818        107.345 
    336       O          -10.401        503.982 
    337       N          149.210         78.974 
    338       H           25.235          7.367 
    339       C          141.094         30.617 
    340       H           26.830          8.096 
    341       C          160.982         21.718 
    342       H           28.300         11.540 
    343       H           28.868          6.782 
    344       S          682.294        272.503 
    345       H           29.777         17.781 
    346       C           33.386        106.201 
    347       O           18.382        530.817 
    348       N          146.487         79.164 
    349       H           24.447          9.322 
    350       C          150.016         34.561 
    351       H           27.928          6.940 
    352       H           27.847          9.420 
    353       C           35.239        104.467 
    354       O           10.643        552.776 
    355       N          150.343         82.320 
    356       H           25.323          7.254 
    357       C          133.306         31.918 
    358       H           27.455          5.026 
    359       C          161.080         16.141 
    360       H           29.471          8.626 
    361       C          173.645         26.836 
    362       H           30.414          6.090 
    363       H           30.525          8.978 
    364       H           30.733         11.724 
    365       C          172.617         14.141 
    366       H           30.644          4.591 
    367       H           30.860          9.118 
    368       H           29.941         11.516 
    369       C           28.786        114.352 
    370       O           22.544        510.499 
    371       N          154.668         89.892 
    372       H           25.798          6.275 
    373       C          149.449         38.965 
    374       H           27.296          7.835 
    375       H           26.926          7.307 
    376       C           33.662        102.087 
    377       O            5.546        515.230 
    378       N          126.890        123.847 
    379       C          149.636         42.311 
    380       H           27.870          6.092 
    381       H           27.515         13.845 
    382       C          170.534         19.617 
    383       H           29.791          9.143 
    384       H           29.810         11.252 
    385       C          164.761         21.915 
    386       H           29.913          8.491 
    387       H           29.532         11.215 
    388       C          130.019         39.957 
    389       H           27.496          6.313 
    390       C           29.167        110.760 
    391       O           19.704        499.341 
    392       N          136.966         86.460 
    393       H           22.089         10.828 
    394       C          134.630         26.331 
    395       H           27.580          4.724 
    396       C          167.230          8.579 
    397       H           30.059         10.749 
    398       H           29.790          8.908 
    399       C          163.595         30.349 
    400       H           29.922          6.139 
    401       H           29.712          9.798 
    402       C           30.793         89.921 
    403       O           36.017        374.744 
    404       O           38.036        335.507 
    405       C           28.482        115.367 
    406       O           28.253        477.211 
    407       N          141.023         92.053 
    408       H           25.597          9.215 
    409       C          138.043         30.657 
    410       H           27.344          5.808 
    411       C          165.740         11.920 
    412       H           30.032         10.279 
    413       H           29.351          9.176 
    414       C          163.298         33.533 
    415       H           29.885          6.621 
    416       H           29.631          5.976 
    417       C           31.187         85.680 
    418       O           14.691        368.706 
    419       O           55.447        355.314 
    420       C           32.694        106.157 
    421       O           48.008        466.637 
    422       N          135.901         86.170 
    423       H           24.297         12.129 
    424       C          145.661         36.564 
    425       H           26.430          6.577 
    426       C          174.786         27.959 
    427       H           29.965          9.390 
    428       H           30.459         10.870 
    429       H           30.604          5.887 
    430       C           31.596        106.144 
    431       O           26.195        523.249 
    432       N          143.989         87.255 
    433       H           23.357          8.771 
    434       C          141.627         37.034 
    435       H           27.119          4.511 
    436       C          161.202         26.289 
    437       H           29.665          8.372 
    438       H           30.316          7.616 
    439       C          161.395         35.368 
    440       H           29.340          5.424 
    441       H           29.853          6.002 
    442       C           29.912         92.430 
    443       O           47.323        242.534 
    444       O           37.128        397.650 
    445       C           31.123        107.909 
    446       O           13.086        493.821 
    447       N          133.115        116.927 
    448       H           25.664          7.299 
    449       C          138.592         22.725 
    450       H           27.202          4.255 
    451       C          160.457         34.822 
    452       H           29.977          4.730 
    453       H           30.011          5.670 
    454       C          168.823         23.588 
    455       H           30.710          7.026 
    456       H           30.173          6.642 
    457       C          164.728         34.077 
    458       H           30.140          4.807 
    459       H           30.348          7.352 
    460       C          151.861         46.495 
    461       H           28.703          6.056 
    462       H           27.872          9.416 
    463       N          224.381         15.085 
    464       H           27.282         16.815 
    465       H           27.180         15.042 
    466       H           26.770         12.055 
    467       C           32.420        109.508 
    468       O           36.599        507.087 
    469       N          142.526         89.656 
    470       H           23.839         10.693 
    471       C          136.333         33.626 
    472       H           27.457          8.113 
    473       C          160.698         17.628 
    474       H           29.812          9.072 
    475       C          171.628         32.191 
    476       H           30.811          7.820 
    477       H           30.920         10.609 
    478       H           30.863          8.333 
    479       C          172.921         29.670 
    480       H           30.592         10.743 
    481       H           30.882          8.008 
    482       H           31.352          6.702 
    483       C           29.498        107.152 
    484       O            4.155        510.386 
    485       N          133.459        107.018 
    486       H           26.166         10.933 
    487       C          130.220         23.139 
    488       H           28.172          2.992 
    489       C          162.421         27.208 
    490       H           30.273          5.346 
    491       H           30.165          7.086 
    492       C          156.799         43.697 
    493       H           30.429          5.616 
    494       H           29.495          5.563 
    495       C           30.339         82.679 
    496       O           25.915        335.875 
    497       O           56.521        373.111 
    498       C           28.442         89.347 
    499       O           71.660        367.578 
    500       O           31.214        324.944 


NMR shielding tensor and spin rotation calculation done in  90.1 sec 

Maximum memory used throughout the entire PROP-calculation: 1475.3 MB

--------------------------------
SUGGESTED CITATIONS FOR THIS RUN
--------------------------------

Below you find a list of papers that are relevant to this ORCA run
We neither can nor want to force you to cite these papers, but we appreciate if you do
You receive ORCA, which is the product of decades of hard work by many enthusiastic individuals, for free
The only thing we kindly ask in return is that you cite our papers,
We deeply appreciate it, if you show your appreciation for ORCA by not just citing the generic ORCA reference.

Please note that relegating all ORCA citations to the supporting information does *not* help us.
SI sections are not indexed - citations you put there will not count into any citation statistics
But we need these citations in order to attract the funding resources that allow us to do what we are doing

Therefore, if you are a happy ORCA user, please consider citing a few of the papers listed below in the main body of your paper

In addition to the list printed below, the program has created the file A0A7C5FAR6_ALA_20260327_122543_nmr.bibtex that contains the list in bibtex format
You can import this file easily into all common literature databanks and citation aid programs

It goes without saying that in many instances, there are alternative algorithms to achieve similar
results as the ones you have gotten from ORCA. It is, of course, also the case that in some instances
ORCA just re-implements algorithms worked out by others. We are fully aware of that and we are also
fully appreciative of our colleagues work. Hence this citation list should not be read as indicating
that the listed papers, which are focused on our own work, are the only ones worth citing. It simply
meant to make it easier for users to cite ORCA specific papers. It is not a substitute for doing your
own literature research and citing the relevant literature in a scientifically appropriate manner.

List of essential papers. We consider these as the minimum necessary citations

  1. Neese, F.
     Software update: the ORCA program system, version 6.0
     WIRES Comput. Molec. Sci. 2025 15(1), e70019
     doi.org/10.1002/wcms.70019

List of papers to cite with high priority. The work reported in these papers was absolutely
necessary for this run to complete.
Our perspective: the developers of density functionals and basis sets usually get cited in chemistry papers
Good! But without the algorithms to do something with them, the functionals or basis sets would not do anything.
Hence, in our opinion, the algorithm design and method developments papers are equally worthy of getting cited

  1. Neese, F.
     An improvement of the resolution of the identity approximation for the formation of the Coulomb matrix
     J. Comp. Chem. 2003 24(14), 1740-1747
     doi.org/10.1002/jcc.10318
  2. Lehtola, S.; Steigemann, C.; Oliveira, M.; Marques, M.
     Recent developments in Libxc - A comprehensive library of functionals for density functional theory
     Software X 2018 7 , 
     doi.org/10.1016/j.softx.2017.11.002
  3. Stoychev, G.L.; Auer, A.A.; Izsak, R.; Neese, F.
     Self-Consistent Field Calculation of Nuclear Magnetic Resonance Chemical Shielding Constants Using Gauge-Including Atomic Orbitals and Approximate Two-Electron Integrals
     J. Chem. Theory Comput. 2018 14(2), 619-637
     doi.org/10.1021/acs.jctc.7b01006
  4. Garcia-Rates, M.; Neese, F.
     Effect of the Solute Cavity on the Solvation Energy and its Derivatives within the Framework of the Gaussian Charge Scheme
     J. Comput. Chem. 2020 41 , 922-939
     doi.org/10.1002/jcc.26139
  5. Neese, F.
     The SHARK Integral Generation and Digestion System
     J. Comp. Chem. 2022 44(3), 381
     doi.org/10.1002/jcc.26942

List of suggested additional citations. These are papers that are important in the 'surrounding' of 
of this run, or papers that preceded the highly important papers. If you like your results we are grateful for a citation.

  1. Neese, F.
     The ORCA program system
     WIRES Comput. Molec. Sci. 2012 2(1), 73-78
     doi.org/10.1002/wcms.81
  2. Neese, F.
     Software update: the ORCA program system, version 4.0
     WIRES Comput. Molec. Sci. 2018 8(1), 1-6
     doi.org/10.1002/wcms.1327
  3. Neese, F.; Wennmohs, F.; Becker, U.; Riplinger, C.
     The ORCA quantum chemistry program package
     J. Chem. Phys. 2020 152(22), 224108
     doi.org/10.1063/5.0004608
  4. Neese, F.
     Software update: The ORCA program system—Version 5.0
     WIRES Comput. Molec. Sci. 2022 12(1), e1606
     doi.org/10.1002/wcms.1606

List of optional additional citations

  1. Neese, F.
     Approximate second-order SCF convergence for spin unrestricted wavefunctions
     Chem. Phys. Lett. 2000 325(1-3), 93-98
     doi.org/10.1016/s0009-2614(00)00662-x

Timings for individual modules:

Sum of individual times          ...     2206.364 sec (=  36.773 min)
Startup calculation              ...       39.511 sec (=   0.659 min)   1.8 %
SCF iterations                   ...     1466.077 sec (=  24.435 min)  66.4 %
Property integrals               ...      564.378 sec (=   9.406 min)  25.6 %
SCF Response                     ...       44.332 sec (=   0.739 min)   2.0 %
Property calculations            ...       92.065 sec (=   1.534 min)   4.2 %
                             ****ORCA TERMINATED NORMALLY****
TOTAL RUN TIME: 0 days 0 hours 36 minutes 47 seconds 876 msec
