
                                 *****************
                                 * O   R   C   A *
                                 *****************

                                            #,                                       
                                            ###                                      
                                            ####                                     
                                            #####                                    
                                            ######                                   
                                           ########,                                 
                                     ,,################,,,,,                         
                               ,,#################################,,                 
                          ,,##########################################,,             
                       ,#########################################, ''#####,          
                    ,#############################################,,   '####,        
                  ,##################################################,,,,####,       
                ,###########''''           ''''###############################       
              ,#####''   ,,,,##########,,,,          '''####'''          '####       
            ,##' ,,,,###########################,,,                        '##       
           ' ,,###''''                  '''############,,,                           
         ,,##''                                '''############,,,,        ,,,,,,###''
      ,#''                                            '''#######################'''  
     '                                                          ''''####''''         
             ,#######,   #######,   ,#######,      ##                                
            ,#'     '#,  ##    ##  ,#'     '#,    #''#        ,####,    ,#,          
            ##       ##  ##   ,#'  ##            #'  '#       #'       ,# #          
            ##       ##  #######   ##           ,######,      #####,      #          
            '#,     ,#'  ##    ##  '#,     ,#' ,#      #,     #,   #      #          
             '#######'   ##     ##  '#######'  #'      '#     '####' #    #          



                #########################################################
                #                        -***-                          #
                #          Department of theory and spectroscopy        #
                #                                                       #
                #                      Frank Neese                      #
                #                                                       #
                #     Directorship, Architecture, Infrastructure        #
                #                    SHARK, DRIVERS                     #
                #        Core code/Algorithms in most modules           #
                #                                                       #
                #        Max Planck Institute fuer Kohlenforschung      #
                #                Kaiser Wilhelm Platz 1                 #
                #                 D-45470 Muelheim/Ruhr                 #
                #                      Germany                          #
                #                                                       #
                #                  All rights reserved                  #
                #                        -***-                          #
                #########################################################


                         Program Version 6.1.1  -  RELEASE   -
                                (GIT: $487d211c$)
                          ($2025-11-21 10:33:24 +0100$)
                                                                         
                                  - NO-DMRG VERSION -                    
                                                                         


 With contributions from (in alphabetic order):
[Max-Planck-Institut fuer Kohlenforschung]                               
  Daniel Aravena         : Magnetic Suceptibility                        
  Michael Atanasov       : Ab Initio Ligand Field Theory (pilot matlab implementation)
  Alexander A. Auer      : GIAO ZORA, VPT2 properties, NMR spectrum      
  Ute Becker             : All parallelization in ORCA, NUMFREQ, NUMCALC 
  Giovanni Bistoni       : ED, misc. LED, open-shell LED, HFLD           
  Dmytro Bykov           : pre 5.0 version of the SCF Hessian            
  Marcos Casanova-Páez   : Triplet and SCS-CIS(D). UHF-(DLPNO)-IP/EA/STEOM-CCSD. UHF-CVS-IP/STEOM-CCSD   
  Vijay G. Chilkuri      : MRCI spin determinant printing, contributions to CSF-ICE 
  Pauline Colinet        : FMM embedding                                 
  Dipayan Datta          : RHF DLPNO-CCSD density                        
  Achintya Kumar Dutta   : EOM-CC, STEOM-CC                              
  Nicolas Foglia         : Exact transition moments, OPA infrastructure, MCD improvements    
  Dmitry Ganyushin       : Spin-Orbit,Spin-Spin,Magnetic field MRCI      
  Miquel Garcia-Rates    : C-PCM and meta-GGA Hessian, CCSD/C-PCM, Gaussian charge scheme 
  Tiago L. C. Gouveia    : GS-ROHF, GS-ROCIS                             
  Yang Guo               : DLPNO-NEVPT2, F12-NEVPT2, CIM, IAO-localization        
  Andreas Hansen         : Spin unrestricted coupled pair/coupled cluster methods 
  Ingolf Harden          : AUTO-CI MPn and infrastructure                
  Benjamin Helmich-Paris : MC-RPA, TRAH-(SCF,CASSCF), AVAS, COSX integrals, SCF dyn. polar., MC-PDFT, srDFT 
  Lee Huntington         : MR-EOM, pCC                                   
  Robert Izsak           : Overlap fitted RIJCOSX, COSX-SCS-MP3, EOM     
  Riya Kayal             : Wick's Theorem for AUTO-CI, AUTO-CI UHF-CCSDT 
  Emily Kempfer          : AUTO-CI RHF CISDT and CCSDT, approximate NEVPT4
  Christian Kollmar      : KDIIS, OOCD, Brueckner-CCSD(T), CCSD density, CASPT2, CASPT2-K, improved NEVPT2 
  Axel Koslowski         : Symmetry handling                             
  Simone Kossmann        : meta-GGA functionals, TD-DFT gradient, OOMP2, (MP2 Hessian; deprecated post 5.0) 
  Lucas Lang             : DCDCAS, Hyperfine gauge corrections, ICE-SOC+SSC
  Marvin Lechner         : AUTO-CI (C++ implementation), FIC-MRCC        
  Spencer Leger          : CASSCF response                               
  Dagmar Lenk            : GEPOL surface, SMD, ORCA-2-JSON               
  Dimitrios Liakos       : Extrapolation schemes; Compound Job, Property file
  Dimitrios Manganas     : Further ROCIS development; embedding schemes. LFT, Crystal Embedding 
  Dimitrios Pantazis     : SARC Basis sets                               
  Anastasios Papadopoulos: AUTO-CI, single reference methods and gradients 
  Taras Petrenko         : pre 6.0 DFT Hessian and TD-DFT gradient,  ECA, NRVS 
  Petra Pikulova         : Analytic Raman intensities                    
  Peter Pinski           : DLPNO-MP2, DLPNO-MP2 Gradient                 
  Shashank Vittal Rao    : ES-AILFT, MagRelax                            
  Christoph Reimann      : Effective Core Potentials                     
  Marius Retegan         : Local ZFS, SOC                                
  Christoph Riplinger    : Optimizer, TS searches, QM/MM, DLPNO-CCSD(T), (RO)-DLPNO pert. Triples 
  Michael Roemelt        : Original ROCIS implementation, recursive CI coupling coefficients
  Masaaki Saitow         : Open-shell DLPNO-CCSD energy and density      
  Barbara Sandhoefer     : DKH picture change effects                    
  Yorick L. A. Schmerwitz: GMF and freeze-and-release deltaSCF, NEB S-IDPP initial path                    
  Kantharuban Sivalingam : CASSCF convergence/infrastructure, NEVPT2, NEVPT3, NEVPT4(SD), FIC-MRCI and CEPA variants
  Bernardo de Souza      : ESD, SOC TD-DFT                               
  Georgi L. Stoychev     : AutoAux, RI-MP2 NMR, DLPNO-MP2 response, X2C  
  Van Anh Tran           : RI-MP2 g-tensors                              
  Willem Van den Heuvel  : Paramagnetic NMR                              
  Zikuan Wang            : NOTCH, Electric field optimization            
  Frank Wennmohs         : Technical directorship and infrastructure     
  Hang Xu                : AUTO-CI-Response properties                   
                                                                         
[FACCTs GmbH]                                                            
  Markus Bursch, Nicolas Foglia, Miquel Garcia-Rates, Ingolf Harden, Hagen Neugebauer, Anastasios Papadopoulos, 
  Christoph Riplinger, Bernardo de Souza, Georgi L. Stoychev                                                    
                                                                 
  APM, various basis sets, CI-OPT, improved COSX, DLPNO-Multilevel,           
  DOCKER, DRACO, updates on ESD, Fragmentator, GOAT, IRC, LR-CPCM, L-BFGS, MBIS, meta-GGA TD-DFT gradient, ML-optimized integration grids, 
  MM, NACMEs, nearIR, NEB, NEB-TS, NL-DFT gradient (VV10), 2- and 3-layer-ONIOM, interface openCOSMO-RS, QMMM,   
  Crystal-QMMM, RESP, rigid body optimization, SF, symmetry and pop. for TD-DFT, various functionals, SOLVATOR                                   
                                                                         
[Other institutions]                                                     
  V. Asgeirsson          : NEB                                           
  Christoph Bannwarth    : sTDA-DFT, sTD-DFT, PBEh-3c, B97-3c, D3        
  Giovanni Bistoni       : ETS/NOCV, ADLD/ADEX, COVALED                  
  Martin Brehm           : Molecular dynamics                            
  Ronald Cardenas        : ETS/NOCV                                      
  Martina Colucci        : COVALED                                       
  Sebastian Ehlert       : rSCAN, r2SCAN, r2SCAN-3c, D4, dhf basis sets  
  Marvin Friede          : D4 for Fr, Ra, Ac-Lr                          
  Lars Goerigk           : TD-DFT with DH, B97 family of functionals     
  Stefan Grimme          : VdW corrections, initial TS optimization, DFT functionals, gCP, sTDA/sTD-DF 
  Waldemar Hujo          : DFT-NL                                        
  H. Jonsson             : NEB                                           
  Holger Kruse           : gCP                                           
  Marcel Mueller         : wB97X-3c, vDZP basis set                      
  Hagen Neugebauer       : wr2SCAN, Native XTB                           
  Gianluca Regni         : ADLD/ADEX                                     
  Tobias Risthaus        : pre 6.0 range-separated hybrid DFT and stability analysis
  Lukas Wittmann         : regularized MP2, r2SCAN double-hybrids, wr2SCAN        
                                                                         
We gratefully acknowledge several colleagues who have allowed us to      
interface, adapt or use parts of their codes:                            
  Ed Valeev, F. Pavosevic, A. Kumar             : LibInt (2-el integral package), F12 methods 
  Garnet Chan, S. Sharma, J. Yang, R. Olivares  : DMRG                   
  Ulf Ekstrom                                   : XCFun DFT Library      
  Mihaly Kallay                                 : mrcc  (arbitrary order and MRCC methods)
  Frank Weinhold                                : gennbo (NPA and NBO analysis)           
  Simon Mueller                                 : openCOSMO-RS                            
  Christopher J. Cramer and Donald G. Truhlar   : smd solvation model                     
  S Lehtola, MJT Oliveira, MAL Marques          : LibXC Library                           
  Liviu Ungur et al                             : ANISO software                          


 Your calculation uses the libint2 library for the computation of 2-el integrals
 For citations please refer to: http://libint.valeyev.net

 Your ORCA version has been built with support for libXC version: 7.0.0
 For citations please refer to: https://libxc.gitlab.io

 This ORCA versions uses:
   CBLAS   interface :  Fast vector & matrix operations
   LAPACKE interface :  Fast linear algebra routines
   SCALAPACK package :  Parallel linear algebra routines
   Shared memory     :  Shared parallel matrices
   BLAS/LAPACK       :  OpenBLAS 0.3.29  USE64BITINT DYNAMIC_ARCH NO_AFFINITY Cooperlake SINGLE_THREADED
        Core in use  :  Cooperlake
   Copyright (c) 2011-2014, The OpenBLAS Project


  ***********************************
  * Starting time: Fri Mar 27 12:00:49 2026
  * Host name:     batcave
  * Process ID:    3914702
  * Working dir.:  /shared/orca_calibration/results/.orca_tmp_kaKW3e
  ***********************************

NOTE: MaxCore=12000 MB was set to SCF,MP2,MDCI,CIPSI,MRCI,RASCI and CIS
      => If you want to overwrite this, your respective input block should be placed after the MaxCore statement


***************************************
The coordinates will be read from file: A0A7C5FAR6_WT_20260327_120049.xyz
***************************************



Information: The global flag for NMR shieldings has been found
             ==>> will calculate the shieldings for all atoms in the system

================================================================================

----- Orbital basis set information -----
Your calculation utilizes the basis: def2-SVP
   F. Weigend and R. Ahlrichs, Phys. Chem. Chem. Phys. 7, 3297 (2005).

----- AuxJ basis set information -----
Your calculation utilizes the auxiliary basis: def2/J
   H-Rn: F. Weigend, Phys. Chem. Chem. Phys. 8, 1057 (2006).
   Fr-Lr: K. Eichkorn, F. Weigend, O. Treutler, R. Ahlrichs; Theor. Chem. Acc. 97, 119 (1997).

================================================================================
                                        WARNINGS
                       Please study these warnings very carefully!
================================================================================



WARNING: SCAN, rSCAN, or r2SCAN functional requested.
  ===> : libXC variant has now been activated.



================================================================================
                                       INPUT FILE
================================================================================
NAME = A0A7C5FAR6_WT_20260327_120049_nmr.inp
|  1> ! r2SCAN def2-SVP def2/J NMR CPCM(Water)
|  2> %maxcore 12000
|  3> %pal nprocs 6 end
|  4> %scf MaxIter 300 end
|  5> %eprnmr
|  6>   TAU DOBSON
|  7> end
|  8> * xyzfile -4 1 A0A7C5FAR6_WT_20260327_120049.xyz
|  9> 
| 10>                          ****END OF INPUT****
================================================================================

                       ****************************
                       * Single Point Calculation *
                       ****************************

---------------------------------
CARTESIAN COORDINATES (ANGSTROEM)
---------------------------------
  N    -11.893000    1.369000    4.897000
  H    -12.002000    1.511000    3.903000
  H    -12.681000    1.784000    5.373000
  H    -11.656000    0.401000    5.063000
  C    -10.707000    2.147000    5.348000
  H    -11.006000    2.876000    6.101000
  C     -9.655000    1.208000    5.964000
  H     -9.354000    0.482000    5.209000
  H     -8.791000    1.803000    6.260000
  C    -10.212000    0.470000    7.189000
  H    -10.435000    1.223000    7.945000
  H    -11.136000   -0.018000    6.879000
  S     -9.094000   -0.766000    7.893000
  C    -10.117000   -1.338000    9.275000
  H    -11.051000   -1.747000    8.891000
  H     -9.583000   -2.111000    9.828000
  H    -10.333000   -0.501000    9.939000
  C    -10.153000    2.925000    4.150000
  O    -10.740000    2.827000    3.074000
  N     -9.082000    3.712000    4.296000
  H     -8.766000    3.947000    5.226000
  C     -8.402000    4.333000    3.152000
  H     -8.823000    3.955000    2.220000
  C     -8.581000    5.854000    3.189000
  H     -8.341000    6.200000    4.195000
  H     -7.883000    6.296000    2.477000
  C    -10.007000    6.275000    2.832000
  H    -10.257000    5.879000    1.848000
  H    -10.693000    5.864000    3.573000
  C    -10.130000    7.800000    2.814000
  H     -9.892000    8.202000    3.799000
  H     -9.445000    8.218000    2.076000
  C    -11.568000    8.173000    2.444000
  H    -11.792000    7.762000    1.460000
  H    -12.241000    7.736000    3.181000
  N    -11.751000    9.640000    2.418000
  H    -11.127000   10.045000    1.734000
  H    -12.706000    9.856000    2.172000
  H    -11.544000   10.021000    3.330000
  C     -6.935000    3.930000    3.115000
  O     -6.317000    3.719000    4.156000
  N     -6.392000    3.820000    1.910000
  H     -6.994000    3.962000    1.111000
  C     -5.002000    3.449000    1.671000
  H     -4.429000    3.522000    2.595000
  C     -4.932000    2.006000    1.165000
  H     -5.558000    1.888000    0.281000
  H     -3.900000    1.762000    0.914000
  C     -5.386000    0.979000    2.150000
  C     -6.662000    0.572000    2.345000
  H     -7.432000    1.021000    1.718000
  N     -6.699000   -0.373000    3.350000
  H     -7.550000   -0.828000    3.647000
  C     -5.438000   -0.636000    3.840000
  C     -4.957000   -1.526000    4.811000
  H     -5.696000   -2.115000    5.353000
  C     -3.569000   -1.610000    5.030000
  H     -3.158000   -2.303000    5.764000
  C     -2.690000   -0.793000    4.297000
  H     -1.611000   -0.839000    4.445000
  C     -3.188000    0.115000    3.344000
  H     -2.443000    0.711000    2.818000
  C     -4.572000    0.207000    3.081000
  C     -4.370000    4.418000    0.682000
  O     -4.927000    4.642000   -0.392000
  N     -3.211000    4.977000    1.028000
  H     -2.879000    4.820000    1.969000
  C     -2.435000    5.861000    0.156000
  H     -3.032000    6.150000   -0.709000
  C     -2.030000    7.129000    0.918000
  H     -2.929000    7.616000    1.295000
  H     -1.391000    6.848000    1.756000
  C     -1.271000    8.097000   -0.002000
  H     -0.348000    7.611000   -0.319000
  H     -1.894000    8.296000   -0.874000
  C     -0.939000    9.410000    0.694000
  H     -0.636000   10.139000   -0.057000
  H     -1.829000    9.769000    1.210000
  N      0.152000    9.264000    1.678000
  H      0.229000    8.364000    2.130000
  C      0.996000   10.214000    2.021000
  N      1.051000   11.347000    1.383000
  H      0.434000   11.513000    0.601000
  H      1.711000   12.055000    1.673000
  N      1.824000   10.021000    3.002000
  H      1.817000    9.142000    3.499000
  H      2.471000   10.751000    3.264000
  C     -1.222000    5.129000   -0.398000
  O     -0.458000    4.541000    0.361000
  N     -1.017000    5.200000   -1.708000
  H     -1.753000    5.550000   -2.304000
  C      0.220000    4.744000   -2.332000
  H      0.484000    3.745000   -1.986000
  C      0.006000    4.696000   -3.849000
  H     -0.798000    4.018000   -4.136000
  H     -0.180000    5.681000   -4.276000
  S      1.506000    4.071000   -4.660000
  H      1.033000    4.142000   -5.901000
  C      1.375000    5.684000   -1.949000
  O      1.347000    6.859000   -2.309000
  N      2.421000    5.162000   -1.298000
  H      2.353000    4.189000   -1.035000
  C      3.631000    5.911000   -0.904000
  H      3.362000    6.786000   -0.312000
  C      4.535000    5.000000   -0.053000
  H      4.678000    4.079000   -0.618000
  H      5.491000    5.513000    0.053000
  C      3.976000    4.664000    1.342000
  H      3.889000    5.584000    1.920000
  H      2.990000    4.212000    1.229000
  C      4.910000    3.682000    2.077000
  H      5.946000    3.975000    1.909000
  H      4.694000    3.709000    3.145000
  C      4.689000    2.258000    1.546000
  H      3.925000    1.807000    2.179000
  H      4.304000    2.363000    0.532000
  N      5.894000    1.390000    1.531000
  H      6.250000    1.292000    2.471000
  H      5.649000    0.480000    1.168000
  H      6.602000    1.807000    0.944000
  C      4.438000    6.452000   -2.094000
  O      5.307000    7.296000   -1.907000
  N      4.181000    5.945000   -3.305000
  H      3.451000    5.249000   -3.366000
  C      4.945000    6.266000   -4.525000
  H      5.919000    6.686000   -4.273000
  C      5.161000    4.994000   -5.373000
  H      4.180000    4.592000   -5.626000
  C      5.950000    5.263000   -6.661000
  H      6.931000    5.665000   -6.409000
  H      6.070000    4.332000   -7.215000
  H      5.410000    5.983000   -7.275000
  C      5.916000    3.928000   -4.570000
  H      5.340000    3.665000   -3.682000
  H      6.057000    3.040000   -5.187000
  H      6.888000    4.319000   -4.269000
  C      4.292000    7.366000   -5.362000
  O      4.995000    8.205000   -5.915000
  N      2.963000    7.350000   -5.501000
  H      2.440000    6.628000   -5.026000
  C      2.239000    8.253000   -6.410000
  H      2.880000    9.082000   -6.711000
  C      1.815000    7.478000   -7.667000
  H      1.403000    8.133000   -8.434000
  H      2.636000    6.898000   -8.088000
  S      0.506000    6.283000   -7.269000
  H      0.374000    5.805000   -8.503000
  C      1.048000    8.980000   -5.770000
  O      0.280000    9.620000   -6.483000
  N      0.857000    8.838000   -4.456000
  H      1.425000    8.128000   -4.017000
  C     -0.229000    9.444000   -3.673000
  H     -0.237000    9.024000   -2.667000
  C     -0.035000   10.969000   -3.568000
  H      0.089000   11.302000   -4.598000
  H     -0.917000   11.443000   -3.136000
  C      1.202000   11.357000   -2.755000
  O      1.235000   11.006000   -1.546000
  O      2.068000   12.061000   -3.316000
  C     -1.665000    9.031000   -4.069000
  O     -2.634000    9.590000   -3.556000
  N     -1.842000    8.010000   -4.919000
  H     -1.041000    7.648000   -5.417000
  C     -3.163000    7.435000   -5.211000
  H     -3.809000    8.197000   -5.646000
  C     -3.036000    6.272000   -6.207000
  H     -2.658000    6.643000   -7.160000
  H     -2.303000    5.598000   -5.764000
  C     -4.340000    5.523000   -6.436000
  C     -4.524000    4.245000   -5.874000
  H     -3.710000    3.776000   -5.321000
  C     -5.751000    3.574000   -6.023000
  H     -5.884000    2.582000   -5.590000
  C     -6.812000    4.188000   -6.717000
  O     -8.001000    3.538000   -6.837000
  H     -8.002000    2.676000   -6.414000
  C     -6.627000    5.464000   -7.294000
  H     -7.440000    5.937000   -7.846000
  C     -5.390000    6.126000   -7.156000
  H     -5.244000    7.107000   -7.607000
  C     -3.875000    6.964000   -3.930000
  O     -3.272000    6.269000   -3.109000
  N     -5.165000    7.298000   -3.795000
  H     -5.551000    7.918000   -4.493000
  C     -6.017000    6.903000   -2.666000
  H     -5.444000    6.407000   -1.882000
  C     -6.769000    8.116000   -2.066000
  H     -7.392000    8.561000   -2.842000
  C     -7.656000    7.685000   -0.880000
  H     -7.034000    7.241000   -0.103000
  H     -8.173000    8.556000   -0.477000
  H     -8.389000    6.954000   -1.221000
  C     -5.829000    9.264000   -1.630000
  H     -5.320000    9.607000   -2.530000
  H     -6.468000   10.061000   -1.248000
  C     -4.790000    8.889000   -0.567000
  H     -4.151000    8.093000   -0.948000
  H     -4.181000    9.761000   -0.330000
  H     -5.299000    8.546000    0.334000
  C     -6.985000    5.801000   -3.098000
  O     -7.800000    5.994000   -4.000000
  N     -6.921000    4.664000   -2.410000
  H     -6.124000    4.541000   -1.801000
  C     -7.878000    3.572000   -2.523000
  H     -8.492000    3.696000   -3.415000
  C     -7.123000    2.245000   -2.630000
  H     -6.409000    2.252000   -3.453000
  H     -6.598000    2.044000   -1.696000
  C     -8.041000    1.078000   -2.867000
  N     -8.702000    0.797000   -4.041000
  C     -9.439000   -0.309000   -3.843000
  H    -10.045000   -0.685000   -4.667000
  N     -9.276000   -0.763000   -2.594000
  H     -9.693000   -1.576000   -2.165000
  C     -8.395000    0.115000   -1.959000
  H     -8.117000   -0.050000   -0.918000
  C     -8.841000    3.575000   -1.330000
  O     -8.409000    3.643000   -0.176000
  N    -10.141000    3.467000   -1.599000
  H    -10.429000    3.560000   -2.563000
  C    -11.176000    3.289000   -0.579000
  H    -10.782000    3.585000    0.393000
  C    -12.414000    4.145000   -0.888000
  H    -12.785000    3.869000   -1.875000
  H    -13.177000    3.929000   -0.140000
  C    -12.087000    5.646000   -0.866000
  H    -11.609000    5.750000    0.108000
  H    -11.385000    5.938000   -1.647000
  C    -13.325000    6.550000   -0.927000
  O    -13.187000    7.670000   -1.468000
  O    -14.356000    6.189000   -0.320000
  C    -11.541000    1.807000   -0.478000
  O    -12.021000    1.209000   -1.437000
  N    -11.303000    1.211000    0.689000
  H    -10.977000    1.775000    1.461000
  C    -11.491000   -0.219000    0.908000
  H    -12.559000   -0.437000    0.908000
  H    -11.009000   -0.765000    0.097000
  C    -10.893000   -0.671000    2.234000
  O    -10.160000    0.065000    2.896000
  N    -11.228000   -1.874000    2.681000
  H    -11.964000   -2.393000    2.225000
  C    -10.676000   -2.404000    3.934000
  H    -10.538000   -1.600000    4.657000
  C    -11.646000   -3.432000    4.524000
  H    -11.853000   -4.222000    3.802000
  H    -11.170000   -3.862000    5.405000
  C    -12.961000   -2.755000    4.933000
  O    -12.895000   -1.587000    5.411000
  O    -14.015000   -3.391000    4.731000
  C     -9.239000   -2.920000    3.777000
  O     -8.500000   -2.992000    4.757000
  N     -8.803000   -3.171000    2.541000
  H     -9.491000   -3.067000    1.809000
  C     -7.459000   -3.623000    2.172000
  H     -6.771000   -3.503000    3.009000
  C     -7.521000   -5.115000    1.796000
  H     -8.207000   -5.226000    0.956000
  H     -6.523000   -5.431000    1.493000
  C     -8.001000   -5.986000    2.968000
  H     -7.342000   -5.827000    3.822000
  H     -9.018000   -5.699000    3.236000
  C     -7.990000   -7.466000    2.615000
  O     -8.849000   -7.974000    1.919000
  N     -7.022000   -8.226000    3.079000
  H     -7.004000   -9.210000    2.852000
  H     -6.302000   -7.822000    3.660000
  C     -6.913000   -2.770000    1.010000
  O     -7.716000   -2.202000    0.266000
  N     -5.582000   -2.644000    0.844000
  C     -4.523000   -3.232000    1.657000
  H     -4.744000   -4.292000    1.779000
  H     -4.539000   -2.744000    2.631000
  C     -3.215000   -2.988000    0.904000
  H     -2.943000   -3.863000    0.313000
  H     -2.409000   -2.755000    1.600000
  C     -3.529000   -1.789000    0.013000
  H     -2.928000   -1.845000   -0.895000
  H     -3.386000   -0.816000    0.483000
  C     -5.006000   -1.992000   -0.328000
  H     -5.500000   -1.032000   -0.480000
  C     -5.196000   -2.870000   -1.579000
  O     -5.368000   -4.086000   -1.454000
  N     -5.146000   -2.289000   -2.790000
  C     -4.900000   -0.882000   -3.077000
  H     -4.033000   -0.563000   -2.498000
  H     -5.775000   -0.312000   -2.764000
  C     -4.661000   -0.802000   -4.585000
  H     -3.597000   -0.863000   -4.814000
  H     -5.068000    0.123000   -4.994000
  C     -5.418000   -2.017000   -5.123000
  H     -4.958000   -2.363000   -6.049000
  H     -6.481000   -1.843000   -5.289000
  C     -5.226000   -3.065000   -4.023000
  H     -6.094000   -3.721000   -3.965000
  C     -3.958000   -3.911000   -4.233000
  O     -2.872000   -3.512000   -3.818000
  N     -4.076000   -5.045000   -4.938000
  H     -4.998000   -5.331000   -5.235000
  C     -2.927000   -5.905000   -5.292000
  H     -2.397000   -6.202000   -4.387000
  C     -3.404000   -7.174000   -6.021000
  H     -3.988000   -6.852000   -6.883000
  H     -2.515000   -7.704000   -6.363000
  C     -4.251000   -8.107000   -5.150000
  H     -3.709000   -8.320000   -4.229000
  H     -5.190000   -7.608000   -4.911000
  C     -4.543000   -9.423000   -5.889000
  O     -4.002000  -10.467000   -5.460000
  O     -5.309000   -9.370000   -6.878000
  C     -1.912000   -5.201000   -6.203000
  O     -0.731000   -5.534000   -6.205000
  N     -2.368000   -4.229000   -6.995000
  H     -3.367000   -4.084000   -7.025000
  C     -1.521000   -3.405000   -7.858000
  H     -0.512000   -3.378000   -7.446000
  C     -1.453000   -3.969000   -9.294000
  H     -2.460000   -3.982000   -9.711000
  C     -0.544000   -3.114000  -10.182000
  H      0.463000   -3.101000   -9.766000
  H     -0.516000   -3.536000  -11.187000
  H     -0.932000   -2.096000  -10.226000
  C     -0.900000   -5.400000   -9.341000
  H     -1.541000   -6.057000   -8.754000
  H     -0.874000   -5.746000  -10.374000
  H      0.109000   -5.414000   -8.928000
  C     -2.064000   -1.983000   -7.855000
  O     -3.264000   -1.763000   -8.038000
  N     -1.188000   -0.996000   -7.676000
  H     -0.240000   -1.217000   -7.406000
  C     -1.560000    0.405000   -7.805000
  H     -2.405000    0.633000   -7.155000
  C     -0.377000    1.289000   -7.398000
  H     -0.071000    1.141000   -6.362000
  H      0.487000    1.171000   -8.052000
  S     -0.876000    3.030000   -7.532000
  H      0.288000    3.539000   -7.138000
  C     -2.005000    0.705000   -9.250000
  O     -1.193000    0.556000  -10.167000
  N     -3.235000    1.205000   -9.481000
  C     -4.244000    1.542000   -8.486000
  H     -3.771000    2.148000   -7.713000
  H     -4.612000    0.615000   -8.046000
  C     -5.333000    2.300000   -9.241000
  H     -5.135000    3.372000   -9.245000
  H     -6.315000    2.114000   -8.805000
  C     -5.240000    1.711000  -10.647000
  H     -5.598000    2.407000  -11.405000
  H     -5.784000    0.770000  -10.733000
  C     -3.740000    1.466000  -10.832000
  H     -3.583000    0.562000  -11.421000
  C     -3.052000    2.653000  -11.523000
  O     -3.268000    2.874000  -12.711000
  N     -2.247000    3.428000  -10.787000
  H     -2.184000    3.227000   -9.799000
  C     -1.546000    4.611000  -11.303000
  H     -1.966000    4.920000  -12.260000
  C     -1.670000    5.782000  -10.309000
  H     -1.249000    5.462000   -9.356000
  C     -0.937000    7.037000  -10.795000
  H     -1.357000    7.358000  -11.748000
  H     -1.054000    7.834000  -10.061000
  H      0.122000    6.813000  -10.922000
  C     -3.142000    6.154000  -10.076000
  H     -3.675000    5.294000   -9.670000
  H     -3.201000    6.983000   -9.371000
  H     -3.597000    6.449000  -11.022000
  C     -0.087000    4.307000  -11.649000
  O      0.366000    4.688000  -12.723000
  N      0.660000    3.627000  -10.769000
  H      0.242000    3.353000   -9.891000
  C      2.102000    3.396000  -10.957000
  H      2.414000    3.735000  -11.945000
  C      2.888000    4.181000   -9.899000
  H      3.964000    4.123000  -10.062000
  H      2.584000    5.227000   -9.856000
  S      2.593000    3.503000   -8.245000
  H      3.377000    4.363000   -7.601000
  C      2.532000    1.921000  -11.011000
  O      3.695000    1.651000  -11.295000
  N      1.630000    0.968000  -10.760000
  H      0.716000    1.245000  -10.431000
  C      1.901000   -0.463000  -10.938000
  H      0.931000   -0.943000  -11.067000
  H      2.475000   -0.552000  -11.861000
  C      2.661000   -1.169000   -9.808000
  O      3.001000   -2.337000   -9.967000
  N      2.936000   -0.505000   -8.682000
  H      2.776000    0.492000   -8.660000
  C      3.563000   -1.141000   -7.502000
  H      4.329000   -1.859000   -7.795000
  C      4.195000   -0.109000   -6.552000
  H      4.645000   -0.632000   -5.708000
  C      5.271000    0.702000   -7.283000
  H      4.822000    1.225000   -8.127000
  H      5.708000    1.428000   -6.597000
  H      6.049000    0.030000   -7.645000
  C      3.152000    0.835000   -5.939000
  H      2.425000    0.254000   -5.371000
  H      3.648000    1.544000   -5.276000
  H      2.641000    1.378000   -6.734000
  C      2.587000   -2.040000   -6.737000
  O      1.372000   -1.858000   -6.847000
  N      3.118000   -2.981000   -5.953000
  H      4.125000   -3.059000   -5.936000
  C      2.337000   -3.899000   -5.123000
  H      1.529000   -4.289000   -5.742000
  H      2.998000   -4.716000   -4.832000
  C      1.735000   -3.265000   -3.854000
  O      1.972000   -2.085000   -3.561000
  N      0.944000   -4.035000   -3.078000
  C      0.705000   -5.460000   -3.262000
  H      1.654000   -5.933000   -3.514000
  H      0.007000   -5.582000   -4.091000
  C      0.134000   -5.962000   -1.944000
  H      0.926000   -6.254000   -1.254000
  H     -0.540000   -6.804000   -2.099000
  C     -0.627000   -4.742000   -1.435000
  H     -0.719000   -4.749000   -0.349000
  H     -1.617000   -4.656000   -1.883000
  C      0.251000   -3.565000   -1.876000
  H     -0.365000   -2.713000   -2.166000
  C      1.202000   -3.147000   -0.743000
  O      0.822000   -2.347000    0.107000
  N      2.442000   -3.644000   -0.728000
  H      2.631000   -4.394000   -1.378000
  C      3.499000   -3.260000    0.219000
  H      3.141000   -3.372000    1.243000
  C      4.737000   -4.163000    0.027000
  H      5.387000   -3.951000    0.876000
  H      4.366000   -5.185000    0.101000
  C      5.535000   -3.998000   -1.287000
  H      5.593000   -2.924000   -1.467000
  H      6.534000   -4.388000   -1.094000
  C      4.943000   -4.695000   -2.528000
  O      5.601000   -4.659000   -3.590000
  O      3.830000   -5.260000   -2.431000
  C      3.878000   -1.771000    0.134000
  O      4.425000   -1.190000    1.081000
  N      3.536000   -1.125000   -0.985000
  H      3.279000   -1.693000   -1.780000
  C      3.721000    0.306000   -1.190000
  H      4.429000    0.688000   -0.455000
  C      4.263000    0.603000   -2.594000
  H      3.568000    0.165000   -3.310000
  H      4.274000    1.686000   -2.716000
  C      5.676000    0.044000   -2.843000
  H      5.537000   -1.037000   -2.825000
  H      6.051000    0.345000   -3.821000
  C      6.692000    0.450000   -1.756000
  O      7.589000   -0.355000   -1.440000
  O      6.545000    1.545000   -1.150000
  C      2.507000    1.159000   -0.801000
  O      2.491000    2.362000   -1.070000
  N      1.522000    0.588000   -0.105000
  H      1.512000   -0.420000   -0.041000
  C      0.400000    1.329000    0.466000
  H      0.415000    2.357000    0.103000
  C     -0.930000    0.687000    0.064000
  H     -0.887000   -0.395000    0.187000
  H     -1.732000    1.091000    0.682000
  C     -1.322000    0.944000   -1.376000
  C     -2.272000    1.937000   -1.680000
  H     -2.723000    2.517000   -0.875000
  C     -2.639000    2.182000   -3.012000
  H     -3.380000    2.947000   -3.244000
  C     -2.049000    1.438000   -4.049000
  H     -2.330000    1.629000   -5.085000
  C     -1.097000    0.447000   -3.750000
  H     -0.643000   -0.133000   -4.553000
  C     -0.731000    0.205000   -2.416000
  H      0.013000   -0.557000   -2.185000
  C      0.516000    1.486000    1.984000
  O      0.884000    0.562000    2.706000
  N      0.144000    2.663000    2.481000
  H      0.059000    3.431000    1.831000
  C     -0.033000    2.938000    3.907000
  H      0.206000    2.044000    4.483000
  C      0.889000    4.079000    4.366000
  H      0.885000    4.092000    5.456000
  H      1.895000    3.858000    4.009000
  C      0.449000    5.450000    3.837000
  H      0.284000    5.397000    2.761000
  H     -0.492000    5.675000    4.338000
  C      1.463000    6.550000    4.142000
  O      1.699000    7.369000    3.225000
  O      1.970000    6.621000    5.279000
  C     -1.508000    3.209000    4.218000
  O     -2.227000    3.811000    3.417000
  N     -1.976000    2.756000    5.382000
  H     -1.394000    2.155000    5.948000
  C     -3.339000    3.027000    5.835000
  H     -4.043000    2.893000    5.014000
  C     -3.708000    2.056000    6.960000
  H     -3.555000    1.039000    6.598000
  H     -3.045000    2.244000    7.805000
  C     -5.165000    2.226000    7.406000
  H     -5.307000    3.233000    7.799000
  H     -5.824000    2.074000    6.551000
  C     -5.497000    1.204000    8.492000
  H     -5.489000    0.200000    8.068000
  H     -4.760000    1.265000    9.293000
  C     -6.884000    1.508000    9.053000
  H     -6.878000    2.513000    9.474000
  H     -7.608000    1.459000    8.240000
  N     -7.257000    0.535000   10.105000
  H     -6.586000    0.580000   10.859000
  H     -8.176000    0.758000   10.459000
  H     -7.263000   -0.397000    9.715000
  C     -3.450000    4.491000    6.259000
  O     -2.645000    4.960000    7.058000
  N     -4.476000    5.174000    5.769000
  H     -4.958000    4.765000    4.981000
  C     -4.836000    6.537000    6.173000
  H     -4.218000    6.865000    7.009000
  C     -4.674000    7.545000    5.014000
  H     -4.945000    8.537000    5.376000
  C     -3.229000    7.568000    4.493000
  H     -2.957000    6.577000    4.131000
  H     -3.148000    8.287000    3.678000
  H     -2.556000    7.857000    5.300000
  C     -5.585000    7.285000    3.815000
  H     -6.627000    7.333000    4.132000
  H     -5.404000    8.040000    3.050000
  H     -5.375000    6.297000    3.406000
  C     -6.222000    6.521000    6.827000
  O     -7.060000    5.680000    6.479000
  N     -6.413000    7.372000    7.840000
  H     -5.609000    7.891000    8.163000
  C     -7.674000    7.492000    8.598000
  H     -7.985000    6.507000    8.947000
  C     -7.498000    8.418000    9.824000
  H     -7.098000    9.367000    9.467000
  H     -8.484000    8.581000   10.260000
  C     -6.553000    7.832000   10.895000
  H     -6.868000    6.812000   11.116000
  H     -5.561000    7.816000   10.443000
  C     -6.509000    8.652000   12.205000
  O     -6.470000    8.014000   13.285000
  O     -6.482000    9.903000   12.133000
  C     -8.858000    7.916000    7.715000
  O     -8.689000    8.791000    6.831000
  O     -9.921000    7.282000    7.904000

----------------------------
CARTESIAN COORDINATES (A.U.)
----------------------------
  NO LB      ZA    FRAG     MASS         X           Y           Z
   0 N     7.0000    0    14.007  -22.474513    2.587035    9.253989
   1 H     1.0000    0     1.008  -22.680493    2.855376    7.375601
   2 H     1.0000    0     1.008  -23.963617    3.371271   10.153499
   3 H     1.0000    0     1.008  -22.026648    0.757780    9.567683
   4 C     6.0000    0    12.011  -20.233298    4.057242   10.106255
   5 H     1.0000    0     1.008  -20.798326    5.434852   11.529219
   6 C     6.0000    0    12.011  -18.245306    2.282789   11.270327
   7 H     1.0000    0     1.008  -17.676498    0.910848    9.843583
   8 H     1.0000    0     1.008  -16.612582    3.407176   11.829686
   9 C     6.0000    0    12.011  -19.297883    0.888171   13.585241
  10 H     1.0000    0     1.008  -19.719292    2.311135   15.013874
  11 H     1.0000    0     1.008  -21.043990   -0.034015   12.999426
  12 S    16.0000    0    32.060  -17.185169   -1.447530   14.915608
  13 C     6.0000    0    12.011  -19.118359   -2.528454   17.527210
  14 H     1.0000    0     1.008  -20.883364   -3.301352   16.801555
  15 H     1.0000    0     1.008  -18.109246   -3.989212   18.572228
  16 H     1.0000    0     1.008  -19.526540   -0.946753   18.781988
  17 C     6.0000    0    12.011  -19.186389    5.527449    7.842363
  18 O     8.0000    0    15.999  -20.295659    5.342256    5.809018
  19 N     7.0000    0    14.007  -17.162493    7.014663    8.118263
  20 H     1.0000    0     1.008  -16.565339    7.458749    9.875709
  21 C     6.0000    0    12.011  -15.877479    8.188183    5.956417
  22 H     1.0000    0     1.008  -16.673054    7.473867    4.195192
  23 C     6.0000    0    12.011  -16.215740   11.062457    6.026337
  24 H     1.0000    0     1.008  -15.762206   11.716302    7.927401
  25 H     1.0000    0     1.008  -14.896711   11.897716    4.680852
  26 C     6.0000    0    12.011  -18.910489   11.858031    5.351704
  27 H     1.0000    0     1.008  -19.382921   11.109700    3.492214
  28 H     1.0000    0     1.008  -20.206842   11.081354    6.751991
  29 C     6.0000    0    12.011  -19.142926   14.739864    5.317689
  30 H     1.0000    0     1.008  -18.693171   15.499534    7.179070
  31 H     1.0000    0     1.008  -17.848463   15.529769    3.923071
  32 C     6.0000    0    12.011  -21.860352   15.444732    4.618491
  33 H     1.0000    0     1.008  -22.283651   14.668054    2.759000
  34 H     1.0000    0     1.008  -23.132138   14.618921    6.011219
  35 N     7.0000    0    14.007  -22.206172   18.216960    4.569358
  36 H     1.0000    0     1.008  -21.026983   18.982299    3.276785
  37 H     1.0000    0     1.008  -24.010860   18.625141    4.104485
  38 H     1.0000    0     1.008  -21.814998   18.936946    6.292788
  39 C     6.0000    0    12.011  -13.105251    7.426624    5.886497
  40 O     8.0000    0    15.999  -11.937400    7.027891    7.853702
  41 N     7.0000    0    14.007  -12.079129    7.218754    3.609377
  42 H     1.0000    0     1.008  -13.216745    7.487095    2.099486
  43 C     6.0000    0    12.011   -9.452410    6.517665    3.157732
  44 H     1.0000    0     1.008   -8.369597    6.655615    4.903839
  45 C     6.0000    0    12.011   -9.320129    3.790791    2.201531
  46 H     1.0000    0     1.008  -10.503098    3.567803    0.531013
  47 H     1.0000    0     1.008   -7.369932    3.329697    1.727210
  48 C     6.0000    0    12.011  -10.178065    1.850042    4.062911
  49 C     6.0000    0    12.011  -12.589356    1.080923    4.431408
  50 H     1.0000    0     1.008  -14.044445    1.929410    3.246549
  51 N     7.0000    0    14.007  -12.659275   -0.704868    6.330583
  52 H     1.0000    0     1.008  -14.267432   -1.564693    6.891831
  53 C     6.0000    0    12.011  -10.276331   -1.201866    7.256548
  54 C     6.0000    0    12.011   -9.367372   -2.883722    9.091472
  55 H     1.0000    0     1.008  -10.763880   -3.996771   10.115704
  56 C     6.0000    0    12.011   -6.744433   -3.042459    9.505322
  57 H     1.0000    0     1.008   -5.967755   -4.352039   10.892381
  58 C     6.0000    0    12.011   -5.083363   -1.498553    8.120153
  59 H     1.0000    0     1.008   -3.044349   -1.585480    8.399833
  60 C     6.0000    0    12.011   -6.024447    0.217319    6.319244
  61 H     1.0000    0     1.008   -4.616601    1.343595    5.325248
  62 C     6.0000    0    12.011   -8.639828    0.391173    5.822246
  63 C     6.0000    0    12.011   -8.258103    8.348810    1.288793
  64 O     8.0000    0    15.999   -9.310681    8.772109   -0.740773
  65 N     7.0000    0    14.007   -6.067911    9.405167    1.942638
  66 H     1.0000    0     1.008   -5.440522    9.108480    3.720871
  67 C     6.0000    0    12.011   -4.601483   11.075685    0.294797
  68 H     1.0000    0     1.008   -5.729650   11.621816   -1.339816
  69 C     6.0000    0    12.011   -3.836144   13.471858    1.734769
  70 H     1.0000    0     1.008   -5.535008   14.392154    2.447195
  71 H     1.0000    0     1.008   -2.628609   12.940845    3.318359
  72 C     6.0000    0    12.011   -2.401842   15.301113   -0.003779
  73 H     1.0000    0     1.008   -0.657625   14.382706   -0.602823
  74 H     1.0000    0     1.008   -3.579141   15.677168   -1.651621
  75 C     6.0000    0    12.011   -1.774453   17.782323    1.311470
  76 H     1.0000    0     1.008   -1.201866   19.159933   -0.107714
  77 H     1.0000    0     1.008   -3.456309   18.460735    2.286569
  78 N     7.0000    0    14.007    0.287238   17.506423    3.170960
  79 H     1.0000    0     1.008    0.432747   15.805669    4.025117
  80 C     6.0000    0    12.011    1.882167   19.301663    3.819137
  81 N     7.0000    0    14.007    1.986102   21.442722    2.613491
  82 H     1.0000    0     1.008    0.820141   21.756417    1.135725
  83 H     1.0000    0     1.008    3.233321   22.780649    3.161512
  84 N     7.0000    0    14.007    3.446860   18.936946    5.672958
  85 H     1.0000    0     1.008    3.433632   17.275876    6.612152
  86 H     1.0000    0     1.008    4.669513   20.316446    6.168066
  87 C     6.0000    0    12.011   -2.309245    9.692405   -0.752111
  88 O     8.0000    0    15.999   -0.865495    8.581246    0.682191
  89 N     7.0000    0    14.007   -1.921851    9.826576   -3.227652
  90 H     1.0000    0     1.008   -3.312690   10.487980   -4.353929
  91 C     6.0000    0    12.011    0.415740    8.964861   -4.406841
  92 H     1.0000    0     1.008    0.914627    7.077024   -3.752996
  93 C     6.0000    0    12.011    0.011338    8.874154   -7.273556
  94 H     1.0000    0     1.008   -1.508001    7.592920   -7.815907
  95 H     1.0000    0     1.008   -0.340151   10.735534   -8.080469
  96 S    16.0000    0    32.060    2.845928    7.693075   -8.806124
  97 H     1.0000    0     1.008    1.952087    7.827246  -11.151274
  98 C     6.0000    0    12.011    2.598373   10.741203   -3.683076
  99 O     8.0000    0    15.999    2.545461   12.961632   -4.363378
 100 N     7.0000    0    14.007    4.575027    9.754766   -2.452865
 101 H     1.0000    0     1.008    4.446526    7.916063   -1.955867
 102 C     6.0000    0    12.011    6.861596   11.170171   -1.708312
 103 H     1.0000    0     1.008    6.353259   12.823682   -0.589595
 104 C     6.0000    0    12.011    8.569908    9.448631   -0.100155
 105 H     1.0000    0     1.008    8.840139    7.708193   -1.167851
 106 H     1.0000    0     1.008   10.376486   10.418060    0.100155
 107 C     6.0000    0    12.011    7.513551    8.813683    2.536012
 108 H     1.0000    0     1.008    7.349145   10.552231    3.628274
 109 H     1.0000    0     1.008    5.650281    7.959526    2.322473
 110 C     6.0000    0    12.011    9.278555    6.957972    3.924961
 111 H     1.0000    0     1.008   11.236312    7.511661    3.607487
 112 H     1.0000    0     1.008    8.870374    7.008994    5.943189
 113 C     6.0000    0    12.011    8.860926    4.267002    2.921517
 114 H     1.0000    0     1.008    7.417175    3.414735    4.117713
 115 H     1.0000    0     1.008    8.133381    4.465423    1.005334
 116 N     7.0000    0    14.007   11.138046    2.626719    2.893171
 117 H     1.0000    0     1.008   11.810788    2.441526    4.669513
 118 H     1.0000    0     1.008   10.675063    0.907069    2.207200
 119 H     1.0000    0     1.008   12.475972    3.414735    1.783901
 120 C     6.0000    0    12.011    8.386605   12.192513   -3.957087
 121 O     8.0000    0    15.999   10.028777   13.787442   -3.603708
 122 N     7.0000    0    14.007    7.900945   11.234422   -6.245545
 123 H     1.0000    0     1.008    6.521445    9.919172   -6.360818
 124 C     6.0000    0    12.011    9.344696   11.841024   -8.551011
 125 H     1.0000    0     1.008   11.185289   12.634709   -8.074800
 126 C     6.0000    0    12.011    9.752877    9.437292  -10.153499
 127 H     1.0000    0     1.008    7.899055    8.677622  -10.631599
 128 C     6.0000    0    12.011   11.243870    9.945629  -12.587466
 129 H     1.0000    0     1.008   13.097692   10.705299  -12.111255
 130 H     1.0000    0     1.008   11.470638    8.186294  -13.634374
 131 H     1.0000    0     1.008   10.223418   11.306231  -13.747758
 132 C     6.0000    0    12.011   11.179620    7.422844   -8.636048
 133 H     1.0000    0     1.008   10.091138    6.925846   -6.957972
 134 H     1.0000    0     1.008   11.446071    5.744767   -9.802009
 135 H     1.0000    0     1.008   13.016434    8.161727   -8.067241
 136 C     6.0000    0    12.011    8.110705   13.919723  -10.132712
 137 O     8.0000    0    15.999    9.439182   15.505203  -11.177730
 138 N     7.0000    0    14.007    5.599259   13.889487  -10.395383
 139 H     1.0000    0     1.008    4.610932   12.525105   -9.497764
 140 C     6.0000    0    12.011    4.231097   15.595910  -12.113145
 141 H     1.0000    0     1.008    5.442411   17.162493  -12.681952
 142 C     6.0000    0    12.011    3.429853   14.131372  -14.488530
 143 H     1.0000    0     1.008    2.651286   15.369143  -15.937950
 144 H     1.0000    0     1.008    4.981318   13.035331  -15.284105
 145 S    16.0000    0    32.060    0.956201   11.873149  -13.736419
 146 H     1.0000    0     1.008    0.706758   10.969860  -16.068341
 147 C     6.0000    0    12.011    1.980433   16.969741  -10.903720
 148 O     8.0000    0    15.999    0.529123   18.179165  -12.251095
 149 N     7.0000    0    14.007    1.619495   16.701400   -8.420620
 150 H     1.0000    0     1.008    2.692860   15.359694   -7.591030
 151 C     6.0000    0    12.011   -0.432747   17.846574   -6.940964
 152 H     1.0000    0     1.008   -0.447865   17.052889   -5.039900
 153 C     6.0000    0    12.011   -0.066140   20.728406   -6.742543
 154 H     1.0000    0     1.008    0.168186   21.357685   -8.688961
 155 H     1.0000    0     1.008   -1.732879   21.624136   -5.926181
 156 C     6.0000    0    12.011    2.271451   21.461620   -5.206195
 157 O     8.0000    0    15.999    2.333812   20.798326   -2.921517
 158 O     8.0000    0    15.999    3.907954   22.791987   -6.266332
 159 C     6.0000    0    12.011   -3.146394   17.066117   -7.689296
 160 O     8.0000    0    15.999   -4.977539   18.122474   -6.719866
 161 N     7.0000    0    14.007   -3.480876   15.136706   -9.295563
 162 H     1.0000    0     1.008   -1.967205   14.452625  -10.236646
 163 C     6.0000    0    12.011   -5.977204   14.050114   -9.847363
 164 H     1.0000    0     1.008   -7.197967   15.490085  -10.669394
 165 C     6.0000    0    12.011   -5.737209   11.852362  -11.729530
 166 H     1.0000    0     1.008   -5.022892   12.553451  -13.530439
 167 H     1.0000    0     1.008   -4.352039   10.578687  -10.892381
 168 C     6.0000    0    12.011   -8.201411   10.436957  -12.162277
 169 C     6.0000    0    12.011   -8.549121    8.021887  -11.100251
 170 H     1.0000    0     1.008   -7.010884    7.135606  -10.055233
 171 C     6.0000    0    12.011  -10.867815    6.753881  -11.381821
 172 H     1.0000    0     1.008  -11.119149    4.879273  -10.563569
 173 C     6.0000    0    12.011  -12.872814    7.914173  -12.693290
 174 O     8.0000    0    15.999  -15.119699    6.685851  -12.920058
 175 H     1.0000    0     1.008  -15.121589    5.056907  -12.120703
 176 C     6.0000    0    12.011  -12.523215   10.325464  -13.783662
 177 H     1.0000    0     1.008  -14.059562   11.219304  -14.826791
 178 C     6.0000    0    12.011  -10.185624   11.576462  -13.522880
 179 H     1.0000    0     1.008   -9.909724   13.430284  -14.375147
 180 C     6.0000    0    12.011   -7.322689   13.160053   -7.426624
 181 O     8.0000    0    15.999   -6.183184   11.846693   -5.875159
 182 N     7.0000    0    14.007   -9.760435   13.791221   -7.171511
 183 H     1.0000    0     1.008  -10.489870   14.962852   -8.490540
 184 C     6.0000    0    12.011  -11.370482   13.044780   -5.038010
 185 H     1.0000    0     1.008  -10.287669   12.107475   -3.556465
 186 C     6.0000    0    12.011  -12.791556   15.337017   -3.904174
 187 H     1.0000    0     1.008  -13.968856   16.177945   -5.370602
 188 C     6.0000    0    12.011  -14.467743   14.522545   -1.662959
 189 H     1.0000    0     1.008  -13.292334   13.683507   -0.194642
 190 H     1.0000    0     1.008  -15.444732   16.168497   -0.901399
 191 H     1.0000    0     1.008  -15.852913   13.141156   -2.307356
 192 C     6.0000    0    12.011  -11.015214   17.506423   -3.080254
 193 H     1.0000    0     1.008  -10.053343   18.154599   -4.781007
 194 H     1.0000    0     1.008  -12.222749   19.012535   -2.358378
 195 C     6.0000    0    12.011   -9.051788   16.797776   -1.071475
 196 H     1.0000    0     1.008   -7.844253   15.293554   -1.791460
 197 H     1.0000    0     1.008   -7.900945   18.445617   -0.623610
 198 H     1.0000    0     1.008  -10.013659   16.149600    0.631169
 199 C     6.0000    0    12.011  -13.199737   10.962301   -5.854372
 200 O     8.0000    0    15.999  -14.739864   11.327018   -7.558905
 201 N     7.0000    0    14.007  -13.078795    8.813683   -4.554240
 202 H     1.0000    0     1.008  -11.572683    8.581246   -3.403397
 203 C     6.0000    0    12.011  -14.887262    6.750102   -4.767779
 204 H     1.0000    0     1.008  -16.047554    6.984428   -6.453415
 205 C     6.0000    0    12.011  -13.460519    4.242435   -4.969980
 206 H     1.0000    0     1.008  -12.111255    4.255663   -6.525224
 207 H     1.0000    0     1.008  -12.468413    3.862600   -3.204976
 208 C     6.0000    0    12.011  -15.195288    2.037125   -5.417845
 209 N     7.0000    0    14.007  -16.444397    1.506112   -7.636383
 210 C     6.0000    0    12.011  -17.837125   -0.583925   -7.262218
 211 H     1.0000    0     1.008  -18.982299   -1.294462   -8.819352
 212 N     7.0000    0    14.007  -17.529100   -1.441861   -4.901950
 213 H     1.0000    0     1.008  -18.317115   -2.978208   -4.091257
 214 C     6.0000    0    12.011  -15.864251    0.217319   -3.701973
 215 H     1.0000    0     1.008  -15.338907   -0.094486   -1.734769
 216 C     6.0000    0    12.011  -16.707069    6.755771   -2.513336
 217 O     8.0000    0    15.999  -15.890707    6.884272   -0.332592
 218 N     7.0000    0    14.007  -19.163713    6.551681   -3.021672
 219 H     1.0000    0     1.008  -19.707954    6.727425   -4.843368
 220 C     6.0000    0    12.011  -21.119579    6.215309   -1.094151
 221 H     1.0000    0     1.008  -20.375027    6.774668    0.742662
 222 C     6.0000    0    12.011  -23.459060    7.832915   -1.678077
 223 H     1.0000    0     1.008  -24.160149    7.311350   -3.543237
 224 H     1.0000    0     1.008  -24.900921    7.424734   -0.264562
 225 C     6.0000    0    12.011  -22.841120   10.669394   -1.636503
 226 H     1.0000    0     1.008  -21.937831   10.865925    0.204090
 227 H     1.0000    0     1.008  -21.514532   11.221194   -3.112379
 228 C     6.0000    0    12.011  -25.180601   12.377706   -1.751776
 229 O     8.0000    0    15.999  -24.919819   14.494199   -2.774118
 230 O     8.0000    0    15.999  -27.128908   11.695515   -0.604712
 231 C     6.0000    0    12.011  -21.809329    3.414735   -0.903289
 232 O     8.0000    0    15.999  -22.716398    2.284679   -2.715536
 233 N     7.0000    0    14.007  -21.359574    2.288458    1.302021
 234 H     1.0000    0     1.008  -20.743524    3.354264    2.760890
 235 C     6.0000    0    12.011  -21.714843   -0.413850    1.715871
 236 H     1.0000    0     1.008  -23.733071   -0.825810    1.715871
 237 H     1.0000    0     1.008  -20.803995   -1.445640    0.183303
 238 C     6.0000    0    12.011  -20.584787   -1.268006    4.221648
 239 O     8.0000    0    15.999  -19.199618    0.122832    5.472647
 240 N     7.0000    0    14.007  -21.217845   -3.541347    5.066356
 241 H     1.0000    0     1.008  -22.608683   -4.522115    4.204641
 242 C     6.0000    0    12.011  -20.174716   -4.542902    7.434183
 243 H     1.0000    0     1.008  -19.913934   -3.023562    8.800455
 244 C     6.0000    0    12.011  -22.007751   -6.485540    8.549121
 245 H     1.0000    0     1.008  -22.398924   -7.978424    7.184739
 246 H     1.0000    0     1.008  -21.108241   -7.298122   10.213970
 247 C     6.0000    0    12.011  -24.492740   -5.206195    9.322019
 248 O     8.0000    0    15.999  -24.368018   -2.998995   10.225308
 249 O     8.0000    0    15.999  -26.484512   -6.408061    8.940294
 250 C     6.0000    0    12.011  -17.459180   -5.518000    7.137496
 251 O     8.0000    0    15.999  -16.062672   -5.654061    8.989427
 252 N     7.0000    0    14.007  -16.635259   -5.992322    4.801794
 253 H     1.0000    0     1.008  -17.935391   -5.795790    3.418515
 254 C     6.0000    0    12.011  -14.095467   -6.846478    4.104485
 255 H     1.0000    0     1.008  -12.795336   -6.619711    5.686186
 256 C     6.0000    0    12.011  -14.212630   -9.665949    3.393948
 257 H     1.0000    0     1.008  -15.508982   -9.875709    1.806578
 258 H     1.0000    0     1.008  -12.326684  -10.263103    2.821361
 259 C     6.0000    0    12.011  -15.119699  -11.311901    5.608707
 260 H     1.0000    0     1.008  -13.874369  -11.011434    7.222533
 261 H     1.0000    0     1.008  -17.041550  -10.769549    6.115154
 262 C     6.0000    0    12.011  -15.098912  -14.108695    4.941634
 263 O     8.0000    0    15.999  -16.722187  -15.068676    3.626384
 264 N     7.0000    0    14.007  -13.269657  -15.544887    5.818467
 265 H     1.0000    0     1.008  -13.235642  -17.404378    5.389499
 266 H     1.0000    0     1.008  -11.909054  -14.781438    6.916398
 267 C     6.0000    0    12.011  -13.063677   -5.234541    1.908623
 268 O     8.0000    0    15.999  -14.581127   -4.161177    0.502667
 269 N     7.0000    0    14.007  -10.548451   -4.996436    1.594929
 270 C     6.0000    0    12.011   -8.547231   -6.107595    3.131276
 271 H     1.0000    0     1.008   -8.964861   -8.110705    3.361823
 272 H     1.0000    0     1.008   -8.577467   -5.185409    4.971869
 273 C     6.0000    0    12.011   -6.075470   -5.646502    1.708312
 274 H     1.0000    0     1.008   -5.561464   -7.300012    0.591484
 275 H     1.0000    0     1.008   -4.552350   -5.206195    3.023562
 276 C     6.0000    0    12.011   -6.668844   -3.380720    0.024566
 277 H     1.0000    0     1.008   -5.533118   -3.486545   -1.691305
 278 H     1.0000    0     1.008   -6.398613   -1.542017    0.912738
 279 C     6.0000    0    12.011   -9.459969   -3.764334   -0.619830
 280 H     1.0000    0     1.008  -10.393494   -1.950197   -0.907069
 281 C     6.0000    0    12.011   -9.819017   -5.423514   -2.983878
 282 O     8.0000    0    15.999  -10.144050   -7.721421   -2.747662
 283 N     7.0000    0    14.007   -9.724531   -4.325583   -5.272336
 284 C     6.0000    0    12.011   -9.259658   -1.666738   -5.814687
 285 H     1.0000    0     1.008   -7.621265   -1.063916   -4.720536
 286 H     1.0000    0     1.008  -10.913168   -0.589595   -5.223203
 287 C     6.0000    0    12.011   -8.808014   -1.515560   -8.664394
 288 H     1.0000    0     1.008   -6.797345   -1.630834   -9.097142
 289 H     1.0000    0     1.008   -9.577132    0.232436   -9.437292
 290 C     6.0000    0    12.011  -10.238536   -3.811578   -9.681067
 291 H     1.0000    0     1.008   -9.369262   -4.465423  -11.430953
 292 H     1.0000    0     1.008  -12.247315   -3.482765   -9.994762
 293 C     6.0000    0    12.011   -9.875709   -5.792011   -7.602368
 294 H     1.0000    0     1.008  -11.515991   -7.031671   -7.492764
 295 C     6.0000    0    12.011   -7.479536   -7.390719   -7.999211
 296 O     8.0000    0    15.999   -5.427293   -6.636718   -7.214974
 297 N     7.0000    0    14.007   -7.702524   -9.533668   -9.331468
 298 H     1.0000    0     1.008   -9.444851  -10.074130   -9.892716
 299 C     6.0000    0    12.011   -5.531228  -11.158833  -10.000431
 300 H     1.0000    0     1.008   -4.529674  -11.720081   -8.290229
 301 C     6.0000    0    12.011   -6.432628  -13.556895  -11.378041
 302 H     1.0000    0     1.008   -7.536228  -12.948403  -13.006985
 303 H     1.0000    0     1.008   -4.752661  -14.558450  -12.024327
 304 C     6.0000    0    12.011   -8.033226  -15.320010   -9.732090
 305 H     1.0000    0     1.008   -7.008994  -15.722521   -7.991652
 306 H     1.0000    0     1.008   -9.807679  -14.377036   -9.280445
 307 C     6.0000    0    12.011   -8.585026  -17.806889  -11.128597
 308 O     8.0000    0    15.999   -7.562684  -19.779763  -10.317905
 309 O     8.0000    0    15.999  -10.032556  -17.706734  -12.997536
 310 C     6.0000    0    12.011   -3.613156   -9.828466  -11.721971
 311 O     8.0000    0    15.999   -1.381390  -10.457744  -11.725751
 312 N     7.0000    0    14.007   -4.474871   -7.991652  -13.218634
 313 H     1.0000    0     1.008   -6.362708   -7.717642  -13.275326
 314 C     6.0000    0    12.011   -2.874273   -6.434517  -14.849468
 315 H     1.0000    0     1.008   -0.967540   -6.383495  -14.070901
 316 C     6.0000    0    12.011   -2.745772   -7.500323  -17.563115
 317 H     1.0000    0     1.008   -4.648726   -7.524889  -18.351130
 318 C     6.0000    0    12.011   -1.028011   -5.884607  -19.241191
 319 H     1.0000    0     1.008    0.874943   -5.860041  -18.455065
 320 H     1.0000    0     1.008   -0.975099   -6.682072  -21.140366
 321 H     1.0000    0     1.008   -1.761225   -3.960866  -19.324339
 322 C     6.0000    0    12.011   -1.700754  -10.204521  -17.651932
 323 H     1.0000    0     1.008   -2.912068  -11.446071  -16.542663
 324 H     1.0000    0     1.008   -1.651621  -10.858366  -19.604019
 325 H     1.0000    0     1.008    0.205980  -10.230977  -16.871475
 326 C     6.0000    0    12.011   -3.900395   -3.747327  -14.843799
 327 O     8.0000    0    15.999   -6.168066   -3.331587  -15.189619
 328 N     7.0000    0    14.007   -2.244995   -1.882167  -14.505538
 329 H     1.0000    0     1.008   -0.453534   -2.299797  -13.995312
 330 C     6.0000    0    12.011   -2.947973    0.765339  -14.749312
 331 H     1.0000    0     1.008   -4.544791    1.196197  -13.520990
 332 C     6.0000    0    12.011   -0.712427    2.435857  -13.980194
 333 H     1.0000    0     1.008   -0.134171    2.156178  -12.022438
 334 H     1.0000    0     1.008    0.920297    2.212869  -15.216075
 335 S    16.0000    0    32.060   -1.655400    5.725870  -14.233417
 336 H     1.0000    0     1.008    0.544241    6.687741  -13.488865
 337 C     6.0000    0    12.011   -3.788901    1.332257  -17.479967
 338 O     8.0000    0    15.999   -2.254443    1.050688  -19.212846
 339 N     7.0000    0    14.007   -6.113264    2.277120  -17.916493
 340 C     6.0000    0    12.011   -8.019998    2.913958  -16.036216
 341 H     1.0000    0     1.008   -7.126157    4.059132  -14.575458
 342 H     1.0000    0     1.008   -8.715417    1.162182  -15.204736
 343 C     6.0000    0    12.011  -10.077909    4.346370  -17.462959
 344 H     1.0000    0     1.008   -9.703744    6.372157  -17.470518
 345 H     1.0000    0     1.008  -11.933621    3.994881  -16.639039
 346 C     6.0000    0    12.011   -9.902165    3.233321  -20.119914
 347 H     1.0000    0     1.008  -10.578687    4.548571  -21.552327
 348 H     1.0000    0     1.008  -10.930176    1.455089  -20.282431
 349 C     6.0000    0    12.011   -7.067576    2.770339  -20.469513
 350 H     1.0000    0     1.008   -6.770889    1.062026  -21.582562
 351 C     6.0000    0    12.011   -5.767444    5.013443  -21.775314
 352 O     8.0000    0    15.999   -6.175625    5.431073  -24.020309
 353 N     7.0000    0    14.007   -4.246215    6.477981  -20.384476
 354 H     1.0000    0     1.008   -4.127162    6.098146  -18.517426
 355 C     6.0000    0    12.011   -2.921517    8.713527  -21.359574
 356 H     1.0000    0     1.008   -3.715202    9.297453  -23.168042
 357 C     6.0000    0    12.011   -3.155843   10.926397  -19.481187
 358 H     1.0000    0     1.008   -2.360268   10.321684  -17.680278
 359 C     6.0000    0    12.011   -1.770673   13.298003  -20.399594
 360 H     1.0000    0     1.008   -2.564358   13.904605  -22.200503
 361 H     1.0000    0     1.008   -1.991771   14.804115  -19.012535
 362 H     1.0000    0     1.008    0.230547   12.874704  -20.639589
 363 C     6.0000    0    12.011   -5.937520   11.629375  -19.040881
 364 H     1.0000    0     1.008   -6.944744   10.004210  -18.273652
 365 H     1.0000    0     1.008   -6.049013   13.195958  -17.708624
 366 H     1.0000    0     1.008   -6.797345   12.186844  -20.828561
 367 C     6.0000    0    12.011   -0.164406    8.139050  -22.013420
 368 O     8.0000    0    15.999    0.691640    8.859036  -24.042986
 369 N     7.0000    0    14.007    1.247219    6.854037  -20.350461
 370 H     1.0000    0     1.008    0.457314    6.336252  -18.691281
 371 C     6.0000    0    12.011    3.972204    6.417510  -20.705729
 372 H     1.0000    0     1.008    4.561799    7.058127  -22.572779
 373 C     6.0000    0    12.011    5.457529    7.900945  -18.706399
 374 H     1.0000    0     1.008    7.490874    7.791341  -19.014424
 375 H     1.0000    0     1.008    4.883052    9.877599  -18.625141
 376 S    16.0000    0    32.060    4.900060    6.619711  -15.580792
 377 H     1.0000    0     1.008    6.381605    8.244875  -14.363808
 378 C     6.0000    0    12.011    4.784787    3.630164  -20.807774
 379 O     8.0000    0    15.999    6.982538    3.119938  -21.344457
 380 N     7.0000    0    14.007    3.080254    1.829255  -20.333453
 381 H     1.0000    0     1.008    1.353044    2.352709  -19.711733
 382 C     6.0000    0    12.011    3.592369   -0.874943  -20.669824
 383 H     1.0000    0     1.008    1.759335   -1.782012  -20.913599
 384 H     1.0000    0     1.008    4.677072   -1.043129  -22.414042
 385 C     6.0000    0    12.011    5.028561   -2.209090  -18.534434
 386 O     8.0000    0    15.999    5.671068   -4.416290  -18.834900
 387 N     7.0000    0    14.007    5.548236   -0.954312  -16.406602
 388 H     1.0000    0     1.008    5.245880    0.929745  -16.365028
 389 C     6.0000    0    12.011    6.733094   -2.156178  -14.176725
 390 H     1.0000    0     1.008    8.180624   -3.513001  -14.730415
 391 C     6.0000    0    12.011    7.927401   -0.205980  -12.381486
 392 H     1.0000    0     1.008    8.777778   -1.194307  -10.786557
 393 C     6.0000    0    12.011    9.960746    1.326588  -13.762875
 394 H     1.0000    0     1.008    9.112259    2.314915  -15.357804
 395 H     1.0000    0     1.008   10.786557    2.698529  -12.466523
 396 H     1.0000    0     1.008   11.430953    0.056692  -14.446956
 397 C     6.0000    0    12.011    5.956417    1.577921  -11.223084
 398 H     1.0000    0     1.008    4.582586    0.479990  -10.149719
 399 H     1.0000    0     1.008    6.893721    2.917737   -9.970195
 400 H     1.0000    0     1.008    4.990767    2.604043  -12.725416
 401 C     6.0000    0    12.011    4.888722   -3.855041  -12.731085
 402 O     8.0000    0    15.999    2.592704   -3.511111  -12.938955
 403 N     7.0000    0    14.007    5.892166   -5.633274  -11.249540
 404 H     1.0000    0     1.008    7.795120   -5.780672  -11.217414
 405 C     6.0000    0    12.011    4.416290   -7.368042   -9.681067
 406 H     1.0000    0     1.008    2.889391   -8.105035  -10.850807
 407 H     1.0000    0     1.008    5.665399   -8.911948   -9.131157
 408 C     6.0000    0    12.011    3.278675   -6.169956   -7.283005
 409 O     8.0000    0    15.999    3.726540   -3.940079   -6.729315
 410 N     7.0000    0    14.007    1.783901   -7.625045   -5.816577
 411 C     6.0000    0    12.011    1.332257  -10.317905   -6.164287
 412 H     1.0000    0     1.008    3.125607  -11.211745   -6.640498
 413 H     1.0000    0     1.008    0.013228  -10.548451   -7.730870
 414 C     6.0000    0    12.011    0.253223  -11.266547   -3.673628
 415 H     1.0000    0     1.008    1.749886  -11.818347   -2.369717
 416 H     1.0000    0     1.008   -1.020452  -12.857697   -3.966535
 417 C     6.0000    0    12.011   -1.184858   -8.961081   -2.711757
 418 H     1.0000    0     1.008   -1.358713   -8.974309   -0.659514
 419 H     1.0000    0     1.008   -3.055687   -8.798565   -3.558354
 420 C     6.0000    0    12.011    0.474321   -6.736874   -3.545126
 421 H     1.0000    0     1.008   -0.689750   -5.126827   -4.093147
 422 C     6.0000    0    12.011    2.271451   -5.946968   -1.404067
 423 O     8.0000    0    15.999    1.553355   -4.435187    0.202201
 424 N     7.0000    0    14.007    4.614711   -6.886162   -1.375721
 425 H     1.0000    0     1.008    4.971869   -8.303457   -2.604043
 426 C     6.0000    0    12.011    6.612152   -6.160507    0.413850
 427 H     1.0000    0     1.008    5.935630   -6.372157    2.348930
 428 C     6.0000    0    12.011    8.951633   -7.866930    0.051023
 429 H     1.0000    0     1.008   10.179955   -7.466308    1.655400
 430 H     1.0000    0     1.008    8.250544   -9.798230    0.190862
 431 C     6.0000    0    12.011   10.459634   -7.555125   -2.432078
 432 H     1.0000    0     1.008   10.569238   -5.525559   -2.772228
 433 H     1.0000    0     1.008   12.347471   -8.292118   -2.067360
 434 C     6.0000    0    12.011    9.340916   -8.872264   -4.777228
 435 O     8.0000    0    15.999   10.584356   -8.804234   -6.784117
 436 O     8.0000    0    15.999    7.237651   -9.939959   -4.593924
 437 C     6.0000    0    12.011    7.328358   -3.346705    0.253223
 438 O     8.0000    0    15.999    8.362038   -2.248774    2.042794
 439 N     7.0000    0    14.007    6.682072   -2.125942   -1.861380
 440 H     1.0000    0     1.008    6.196412   -3.199306   -3.363713
 441 C     6.0000    0    12.011    7.031671    0.578256   -2.248774
 442 H     1.0000    0     1.008    8.369597    1.300132   -0.859825
 443 C     6.0000    0    12.011    8.055903    1.139505   -4.901950
 444 H     1.0000    0     1.008    6.742543    0.311805   -6.254994
 445 H     1.0000    0     1.008    8.076689    3.186078   -5.132496
 446 C     6.0000    0    12.011   10.726086    0.083148   -5.372491
 447 H     1.0000    0     1.008   10.463414   -1.959646   -5.338476
 448 H     1.0000    0     1.008   11.434733    0.651956   -7.220644
 449 C     6.0000    0    12.011   12.646047    0.850377   -3.318359
 450 O     8.0000    0    15.999   14.341132   -0.670853   -2.721206
 451 O     8.0000    0    15.999   12.368258    2.919627   -2.173185
 452 C     6.0000    0    12.011    4.737543    2.190193   -1.513671
 453 O     8.0000    0    15.999    4.707308    4.463533   -2.022007
 454 N     7.0000    0    14.007    2.876163    1.111159   -0.198421
 455 H     1.0000    0     1.008    2.857266   -0.793685   -0.077479
 456 C     6.0000    0    12.011    0.755890    2.511446    0.880612
 457 H     1.0000    0     1.008    0.784236    4.454084    0.194642
 458 C     6.0000    0    12.011   -1.757445    1.298242    0.120942
 459 H     1.0000    0     1.008   -1.676187   -0.746442    0.353379
 460 H     1.0000    0     1.008   -3.273006    2.061691    1.288793
 461 C     6.0000    0    12.011   -2.498218    1.783901   -2.600263
 462 C     6.0000    0    12.011   -4.293458    3.660400   -3.174740
 463 H     1.0000    0     1.008   -5.145724    4.756441   -1.653510
 464 C     6.0000    0    12.011   -4.986987    4.123382   -5.691855
 465 H     1.0000    0     1.008   -6.387274    5.569023   -6.130272
 466 C     6.0000    0    12.011   -3.872049    2.717426   -7.651501
 467 H     1.0000    0     1.008   -4.403062    3.078364   -9.609257
 468 C     6.0000    0    12.011   -2.073030    0.844708   -7.086473
 469 H     1.0000    0     1.008   -1.215094   -0.251334   -8.603923
 470 C     6.0000    0    12.011   -1.381390    0.387394   -4.565578
 471 H     1.0000    0     1.008    0.024566   -1.052577   -4.129052
 472 C     6.0000    0    12.011    0.975099    2.808133    3.749217
 473 O     8.0000    0    15.999    1.670518    1.062026    5.113599
 474 N     7.0000    0    14.007    0.272121    5.032341    4.688411
 475 H     1.0000    0     1.008    0.111494    6.483650    3.460089
 476 C     6.0000    0    12.011   -0.062361    5.552015    7.383160
 477 H     1.0000    0     1.008    0.389284    3.862600    8.471642
 478 C     6.0000    0    12.011    1.679967    7.708193    8.250544
 479 H     1.0000    0     1.008    1.672408    7.732759   10.310346
 480 H     1.0000    0     1.008    3.581031    7.290563    7.575912
 481 C     6.0000    0    12.011    0.848487   10.299007    7.250879
 482 H     1.0000    0     1.008    0.536682   10.198852    5.217534
 483 H     1.0000    0     1.008   -0.929745   10.724196    8.197632
 484 C     6.0000    0    12.011    2.764669   12.377706    7.827246
 485 O     8.0000    0    15.999    3.210645   13.925392    6.094367
 486 O     8.0000    0    15.999    3.722760   12.511877    9.975864
 487 C     6.0000    0    12.011   -2.849707    6.064131    7.970865
 488 O     8.0000    0    15.999   -4.208420    7.201746    6.457194
 489 N     7.0000    0    14.007   -3.734099    5.208085   10.170506
 490 H     1.0000    0     1.008   -2.634278    4.072360   11.240091
 491 C     6.0000    0    12.011   -6.309796    5.720201   11.026552
 492 H     1.0000    0     1.008   -7.640163    5.466978    9.475087
 493 C     6.0000    0    12.011   -7.007105    3.885277   13.152494
 494 H     1.0000    0     1.008   -6.717976    1.963425   12.468413
 495 H     1.0000    0     1.008   -5.754216    4.240545   14.749312
 496 C     6.0000    0    12.011   -9.760435    4.206530   13.995312
 497 H     1.0000    0     1.008  -10.028777    6.109485   14.737974
 498 H     1.0000    0     1.008  -11.005765    3.919292   12.379596
 499 C     6.0000    0    12.011  -10.387825    2.275230   16.047554
 500 H     1.0000    0     1.008  -10.372707    0.377945   15.246310
 501 H     1.0000    0     1.008   -8.995096    2.390504   17.561225
 502 C     6.0000    0    12.011  -13.008875    2.849707   17.107691
 503 H     1.0000    0     1.008  -12.997536    4.748882   17.903265
 504 H     1.0000    0     1.008  -14.377036    2.757110   15.571343
 505 N     7.0000    0    14.007  -13.713743    1.011003   19.095683
 506 H     1.0000    0     1.008  -12.445736    1.096041   20.520536
 507 H     1.0000    0     1.008  -15.450401    1.432412   19.764646
 508 H     1.0000    0     1.008  -13.725081   -0.750221   18.358689
 509 C     6.0000    0    12.011   -6.519555    8.486760   11.827796
 510 O     8.0000    0    15.999   -4.998326    9.373042   13.337687
 511 N     7.0000    0    14.007   -8.458414    9.777443   10.901830
 512 H     1.0000    0     1.008   -9.369262    9.004545    9.412726
 513 C     6.0000    0    12.011   -9.138716   12.353140   11.665279
 514 H     1.0000    0     1.008   -7.970865   12.972970   13.245090
 515 C     6.0000    0    12.011   -8.832580   14.257984    9.475087
 516 H     1.0000    0     1.008   -9.344696   16.132592   10.159168
 517 C     6.0000    0    12.011   -6.101926   14.301447    8.490540
 518 H     1.0000    0     1.008   -5.587920   12.428729    7.806459
 519 H     1.0000    0     1.008   -5.948858   15.660160    6.950413
 520 H     1.0000    0     1.008   -4.830140   14.847578   10.015549
 521 C     6.0000    0    12.011  -10.554120   13.766655    7.209305
 522 H     1.0000    0     1.008  -12.523215   13.857362    7.808348
 523 H     1.0000    0     1.008  -10.212080   15.193398    5.763665
 524 H     1.0000    0     1.008  -10.157278   11.899605    6.436407
 525 C     6.0000    0    12.011  -11.757876   12.322904   12.901160
 526 O     8.0000    0    15.999  -13.341467   10.733644   12.243536
 527 N     7.0000    0    14.007  -12.118814   13.931061   14.815453
 528 H     1.0000    0     1.008  -10.599474   14.911829   15.425834
 529 C     6.0000    0    12.011  -14.501758   14.157828   16.247865
 530 H     1.0000    0     1.008  -15.089463   12.296448   16.907380
 531 C     6.0000    0    12.011  -14.169167   15.907715   18.564670
 532 H     1.0000    0     1.008  -13.413276   17.701065   17.890037
 533 H     1.0000    0     1.008  -16.032437   16.215740   19.388590
 534 C     6.0000    0    12.011  -12.383375   14.800335   20.588566
 535 H     1.0000    0     1.008  -12.978639   12.872814   21.006196
 536 H     1.0000    0     1.008  -10.508767   14.770099   19.734410
 537 C     6.0000    0    12.011  -12.300227   16.349911   23.064107
 538 O     8.0000    0    15.999  -12.226528   15.144265   25.105012
 539 O     8.0000    0    15.999  -12.249205   18.713958   22.928047
 540 C     6.0000    0    12.011  -16.739194   14.959072   14.579237
 541 O     8.0000    0    15.999  -16.419830   16.612582   12.908719
 542 O     8.0000    0    15.999  -18.747973   13.760986   14.936395

--------------------------------
INTERNAL COORDINATES (ANGSTROEM)
--------------------------------
 N      0   0   0     0.000000000000     0.00000000     0.00000000
 H      1   0   0     1.009990594016     0.00000000     0.00000000
 H      1   2   0     1.009824242133   108.77858042     0.00000000
 H      1   2   3     1.010321236043   108.76727780   132.26598112
 C      1   2   3     1.488382007416   108.10269022   246.12869919
 H      5   1   2     1.089885773831   109.89995262   120.27246407
 C      5   1   2     1.538792058727   110.30948704   240.00017268
 H      7   5   1     1.089817415900   108.54198907    59.71274191
 H      7   5   1     1.090016972345   108.51227984   178.56324188
 C      7   5   1     1.534769689563   111.39717630   299.14883870
 H     10   7   5     1.090079813592   107.19537851   296.12153573
 H     10   7   5     1.089963302135   107.21394648    53.56766796
 S     10   7   5     1.809208666793   114.50806273   174.85863854
 C     13  10   7     1.812080848086    99.41333707   179.15506316
 H     14  13  10     1.089537975474   109.49066600    60.00058268
 H     14  13  10     1.090180718964   109.52110881   179.98164868
 H     14  13  10     1.090009632985   109.51604901   299.98023746
 C      5   1   2     1.532124015868   108.45901670     3.08270431
 O     18   5   1     1.229613353864   118.10886875     1.47243562
 N     18   5   1     1.337058712249   120.20827311   179.71104587
 H     20  18   5     1.009941087391   119.21844570   346.80754355
 C     20  18   5     1.468596949473   122.32515319   171.47213820
 H     22  20  18     1.090297665778   109.90653042   353.09343798
 C     22  20  18     1.531943536819   110.29876541   112.86394655
 H     24  22  20     1.090574160706   108.15346050    48.49463385
 H     24  22  20     1.090647514094   108.16908710   166.93192943
 C     24  22  20     1.529106274920   112.12848660   287.70325540
 H     27  24  22     1.089757771250   108.94763275   303.07154938
 H     27  24  22     1.090228416434   108.92446241    62.35947686
 C     27  24  22     1.530058168829   110.61760025   182.70941822
 H     30  27  24     1.090171087490   109.83733798   299.42332630
 H     30  27  24     1.090226123334   109.85210601    59.86786493
 C     30  27  24     1.530971260344   108.73437498   179.63401985
 H     33  30  27     1.089657285572   108.62863906   300.19788636
 H     33  30  27     1.089526043746   108.60175150    59.13016946
 N     33  30  27     1.478598660895   111.23688071   179.67365318
 H     36  33  30     1.010572609959   109.45698236    60.00127686
 H     36  33  30     1.009552871325   109.48988772   180.01131913
 H     36  33  30     1.009828698344   109.45589946   300.00722100
 C     22  20  18     1.521797292677   110.69017928   237.50299437
 O     40  22  20     1.228871840348   120.64154033   327.61587646
 N     40  22  20     1.326263171471   116.02305560   147.27694787
 H     42  40  22     1.010430106440   117.57239409   356.90758687
 C     42  40  22     1.458376494599   124.07110292   179.81069756
 H     44  42  40     1.089694452588   110.19263801   345.91521802
 C     44  42  40     1.530746549890   109.72873388   105.48157868
 H     46  44  42     1.089612775256   110.12051440    55.29721379
 H     46  44  42     1.089752724245   109.29982895   175.56261444
 C     46  44  42     1.493676671840   114.59916696   295.12328575
 C     49  46  44     1.353458532797   126.03798481    85.93160722
 H     50  49  46     1.089784382344   117.34433550     0.96794017
 N     50  49  46     1.380006884041   109.64075938   180.93453325
 H     52  50  49     1.009670738409   123.05261614   181.35770048
 C     52  50  49     1.378183587190   111.41190140   359.10340996
 C     54  52  50     1.402248908005   132.93520098   182.30448731
 H     55  54  52     1.089406260309   117.06352215   356.20258659
 C     55  54  52     1.407679295863   118.93574133   176.18987753
 H     57  55  54     1.089920180564   120.96622736   181.08269536
 C     57  55  54     1.406207310463   120.03852831     1.07744564
 H     59  57  55     1.090073850709   121.56370619   180.12665022
 C     59  57  55     1.407365268862   120.43955658     0.16452524
 H     61  59  57     1.089457204299   115.97078386   180.04182017
 C     61  59  57     1.411768040437   121.00308157   358.61733927
 C     44  42  40     1.522007227315   109.89520353   228.41846903
 O     64  44  42     1.230406843284   119.67810954   308.02248417
[...]
    249       O           12.202        386.998 
    250       C           32.035        111.734 
    251       O           29.970        508.840 
    252       N          145.701         87.969 
    253       H           25.508          7.368 
    254       C          140.236         25.270 
    255       H           27.481          7.050 
    256       C          163.006         22.353 
    257       H           30.540          5.685 
    258       H           30.077          6.674 
    259       C          161.888         36.283 
    260       H           29.867          6.157 
    261       H           29.882          5.748 
    262       C           34.565        115.529 
    263       O           19.955        500.721 
    264       N          164.868        111.442 
    265       H           26.807         14.021 
    266       H           26.475          6.566 
    267       C           34.470        104.339 
    268       O            3.541        518.136 
    269       N          127.715        129.451 
    270       C          151.022         40.065 
    271       H           29.196          9.242 
    272       H           31.025         17.088 
    273       C          170.656         27.156 
    274       H           30.487         13.176 
    275       H           30.761          4.375 
    276       C          167.369         18.474 
    277       H           30.881         10.677 
    278       H           30.353          8.405 
    279       C          133.515         45.030 
    280       H           28.426          3.867 
    281       C           33.882        103.878 
    282       O            0.087        503.415 
    283       N          130.458        134.928 
    284       C          150.581         40.826 
    285       H           30.597         10.856 
    286       H           29.326         13.604 
    287       C          168.063         24.721 
    288       H           30.462          9.753 
    289       H           30.089          7.304 
    290       C          166.508         23.273 
    291       H           30.070         10.094 
    292       H           30.490          9.208 
    293       C          133.675         42.516 
    294       H           28.287          6.543 
    295       C           30.076        110.780 
    296       O            8.679        523.781 
    297       N          143.319        105.840 
    298       H           26.334          8.561 
    299       C          132.425         22.370 
    300       H           28.347          4.731 
    301       C          161.005         27.534 
    302       H           30.136          6.076 
    303       H           29.929          6.590 
    304       C          156.744         43.777 
    305       H           30.548          5.613 
    306       H           29.881          5.483 
    307       C           30.708         82.926 
    308       O           32.914        326.492 
    309       O           57.523        362.886 
    310       C           32.613        111.945 
    311       O           21.569        488.613 
    312       N          151.323         86.949 
    313       H           25.848          6.265 
    314       C          135.916         20.832 
    315       H           27.634          6.573 
    316       C          156.732         25.213 
    317       H           30.411          4.883 
    318       C          174.233         27.335 
    319       H           31.218          8.570 
    320       H           31.024         10.963 
    321       H           30.867         10.896 
    322       C          171.680         27.164 
    323       H           30.681          8.223 
    324       H           30.975         12.893 
    325       H           31.075          4.368 
    326       C           31.870        112.417 
    327       O           18.399        533.566 
    328       N          137.387        102.235 
    329       H           22.551         11.552 
    330       C          142.263         21.452 
    331       H           27.079          4.948 
    332       C          163.434         15.078 
    333       H           27.984          8.879 
    334       H           28.019         10.002 
    335       S          650.315        257.239 
    336       H           26.994         17.320 
    337       C           33.037        103.616 
    338       O           11.679        507.233 
    339       N          117.521        126.787 
    340       C          146.897         43.606 
    341       H           28.163          8.396 
    342       H           27.966          7.096 
    343       C          170.081         25.634 
    344       H           31.023          9.914 
    345       H           29.997         10.058 
    346       C          165.004         25.340 
    347       H           29.889         10.966 
    348       H           29.692         11.515 
    349       C          130.708         40.725 
    350       H           27.500          7.288 
    351       C           35.327        103.434 
    352       O           26.948        524.219 
    353       N          142.637         85.379 
    354       H           25.445          7.787 
    355       C          130.620         24.331 
    356       H           27.913          6.116 
    357       C          159.369         11.765 
    358       H           29.837         10.964 
    359       C          175.081         23.623 
    360       H           30.924         12.328 
    361       H           30.558          6.499 
    362       H           30.809          5.179 
    363       C          172.238         29.562 
    364       H           30.861          9.199 
    365       H           30.489          8.060 
    366       H           31.202          9.962 
    367       C           33.878        106.688 
    368       O          -10.400        503.638 
    369       N          149.286         78.610 
    370       H           25.301          8.383 
    371       C          141.121         30.696 
    372       H           26.852          8.458 
    373       C          161.003         21.282 
    374       H           28.320         12.153 
    375       H           28.892          6.831 
    376       S          682.291        271.938 
    377       H           29.830         17.188 
    378       C           33.395        106.151 
    379       O           18.327        530.841 
    380       N          146.503         79.140 
    381       H           24.459          9.885 
    382       C          150.004         34.342 
    383       H           27.924          6.422 
    384       H           27.848          9.860 
    385       C           35.192        104.730 
    386       O           10.563        552.944 
    387       N          150.280         82.356 
    388       H           25.288          7.016 
    389       C          133.114         31.909 
    390       H           27.408          5.287 
    391       C          161.026         15.464 
    392       H           29.423          8.381 
    393       C          173.655         27.426 
    394       H           30.415          5.893 
    395       H           30.534          8.638 
    396       H           30.722         12.266 
    397       C          172.509         15.203 
    398       H           30.560          6.157 
    399       H           30.920          7.957 
    400       H           29.937         11.068 
    401       C           28.499        114.520 
    402       O           22.810        508.298 
    403       N          154.527         89.733 
    404       H           25.711          6.488 
    405       C          149.293         38.752 
    406       H           27.229          7.173 
    407       H           26.862          7.493 
    408       C           33.153        102.423 
    409       O            7.970        506.251 
    410       N          125.924        123.312 
    411       C          149.669         42.731 
    412       H           27.867          6.638 
    413       H           27.565         13.555 
    414       C          170.579         19.965 
    415       H           29.832          9.422 
    416       H           29.913         11.438 
    417       C          164.887         22.514 
    418       H           30.105          8.948 
    419       H           29.812         10.334 
    420       C          129.291         40.285 
    421       H           27.191          8.742 
    422       C           29.071        110.862 
    423       O           19.259        495.350 
    424       N          136.556         87.102 
    425       H           21.980         11.649 
    426       C          134.555         25.506 
    427       H           27.461          4.686 
    428       C          167.168          9.169 
    429       H           29.989         10.920 
    430       H           29.733          9.092 
    431       C          163.533         30.243 
    432       H           29.845          5.930 
    433       H           29.662         10.213 
    434       C           30.732         90.237 
    435       O           35.805        375.226 
    436       O           38.080        335.689 
    437       C           28.445        115.822 
    438       O           27.549        478.490 
    439       N          140.749         91.536 
    440       H           25.375          8.079 
    441       C          137.895         30.855 
    442       H           27.272          6.133 
    443       C          165.584         11.489 
    444       H           29.964          9.820 
    445       H           29.412          8.267 
    446       C          163.255         33.971 
    447       H           29.821          6.331 
    448       H           29.613          5.852 
    449       C           31.177         85.739 
    450       O           14.554        368.804 
    451       O           55.421        355.387 
    452       C           31.305        109.467 
    453       O           44.268        468.830 
    454       N          138.569         86.344 
    455       H           23.913         11.564 
    456       C          139.083         27.689 
    457       H           26.345          5.804 
    458       C          154.459         12.757 
    459       H           28.127          4.789 
    460       H           28.246          9.936 
    461       C           55.893        187.605 
    462       C           68.011        157.257 
    463       H           23.775          2.604 
    464       C           68.436        177.828 
    465       H           23.484          5.223 
    466       C           70.016        178.355 
    467       H           23.509          5.495 
    468       C           69.716        173.556 
    469       H           23.967          6.190 
    470       C           68.800        164.974 
    471       H           23.570          5.974 
    472       C           31.435        105.800 
    473       O           22.980        520.612 
    474       N          143.669         84.481 
    475       H           23.007          8.796 
    476       C          141.131         35.745 
    477       H           26.830          3.391 
    478       C          161.137         27.309 
    479       H           29.612          8.625 
    480       H           30.203          7.507 
    481       C          161.325         36.381 
    482       H           29.254          5.489 
    483       H           29.828          5.279 
    484       C           29.920         91.904 
    485       O           47.256        242.100 
    486       O           37.082        397.244 
    487       C           31.241        110.014 
    488       O           12.206        496.419 
    489       N          131.397        111.336 
    490       H           25.873          5.006 
    491       C          138.865         23.350 
    492       H           28.273          4.147 
    493       C          161.647         32.127 
    494       H           31.601         10.315 
    495       H           30.588          6.631 
    496       C          169.359         21.922 
    497       H           31.217          6.492 
    498       H           31.321          6.621 
    499       C          165.062         33.771 
    500       H           30.615          4.990 
    501       H           30.676          8.133 
    502       C          152.070         46.325 
    503       H           28.924          6.225 
    504       H           28.124          8.195 
    505       N          224.482         15.533 
    506       H           27.378         17.231 
    507       H           27.252         15.596 
    508       H           26.831         11.209 
    509       C           32.774        108.359 
    510       O           36.648        506.432 
    511       N          142.916         89.017 
    512       H           24.236         11.707 
    513       C          136.525         33.665 
    514       H           27.610          8.726 
    515       C          160.803         17.366 
    516       H           29.890          9.790 
    517       C          171.686         31.604 
    518       H           30.858          7.596 
    519       H           30.948         10.181 
    520       H           30.923          8.546 
    521       C          172.978         29.263 
    522       H           30.682         10.134 
    523       H           30.916          7.732 
    524       H           31.413          7.734 
    525       C           29.663        106.771 
    526       O            4.415        509.474 
    527       N          133.582        107.730 
    528       H           26.273         11.404 
    529       C          130.316         22.833 
    530       H           28.285          2.661 
    531       C          162.496         27.618 
    532       H           30.337          5.691 
    533       H           30.227          7.369 
    534       C          156.871         44.100 
    535       H           30.513          5.661 
    536       H           29.577          5.948 
    537       C           30.393         82.501 
    538       O           25.964        335.697 
    539       O           56.564        372.944 
    540       C           28.519         89.971 
    541       O           71.723        368.151 
    542       O           31.298        325.539 


NMR shielding tensor and spin rotation calculation done in 119.6 sec 

Maximum memory used throughout the entire PROP-calculation: 1785.0 MB

--------------------------------
SUGGESTED CITATIONS FOR THIS RUN
--------------------------------

Below you find a list of papers that are relevant to this ORCA run
We neither can nor want to force you to cite these papers, but we appreciate if you do
You receive ORCA, which is the product of decades of hard work by many enthusiastic individuals, for free
The only thing we kindly ask in return is that you cite our papers,
We deeply appreciate it, if you show your appreciation for ORCA by not just citing the generic ORCA reference.

Please note that relegating all ORCA citations to the supporting information does *not* help us.
SI sections are not indexed - citations you put there will not count into any citation statistics
But we need these citations in order to attract the funding resources that allow us to do what we are doing

Therefore, if you are a happy ORCA user, please consider citing a few of the papers listed below in the main body of your paper

In addition to the list printed below, the program has created the file A0A7C5FAR6_WT_20260327_120049_nmr.bibtex that contains the list in bibtex format
You can import this file easily into all common literature databanks and citation aid programs

It goes without saying that in many instances, there are alternative algorithms to achieve similar
results as the ones you have gotten from ORCA. It is, of course, also the case that in some instances
ORCA just re-implements algorithms worked out by others. We are fully aware of that and we are also
fully appreciative of our colleagues work. Hence this citation list should not be read as indicating
that the listed papers, which are focused on our own work, are the only ones worth citing. It simply
meant to make it easier for users to cite ORCA specific papers. It is not a substitute for doing your
own literature research and citing the relevant literature in a scientifically appropriate manner.

List of essential papers. We consider these as the minimum necessary citations

  1. Neese, F.
     Software update: the ORCA program system, version 6.0
     WIRES Comput. Molec. Sci. 2025 15(1), e70019
     doi.org/10.1002/wcms.70019

List of papers to cite with high priority. The work reported in these papers was absolutely
necessary for this run to complete.
Our perspective: the developers of density functionals and basis sets usually get cited in chemistry papers
Good! But without the algorithms to do something with them, the functionals or basis sets would not do anything.
Hence, in our opinion, the algorithm design and method developments papers are equally worthy of getting cited

  1. Neese, F.
     An improvement of the resolution of the identity approximation for the formation of the Coulomb matrix
     J. Comp. Chem. 2003 24(14), 1740-1747
     doi.org/10.1002/jcc.10318
  2. Lehtola, S.; Steigemann, C.; Oliveira, M.; Marques, M.
     Recent developments in Libxc - A comprehensive library of functionals for density functional theory
     Software X 2018 7 , 
     doi.org/10.1016/j.softx.2017.11.002
  3. Stoychev, G.L.; Auer, A.A.; Izsak, R.; Neese, F.
     Self-Consistent Field Calculation of Nuclear Magnetic Resonance Chemical Shielding Constants Using Gauge-Including Atomic Orbitals and Approximate Two-Electron Integrals
     J. Chem. Theory Comput. 2018 14(2), 619-637
     doi.org/10.1021/acs.jctc.7b01006
  4. Garcia-Rates, M.; Neese, F.
     Effect of the Solute Cavity on the Solvation Energy and its Derivatives within the Framework of the Gaussian Charge Scheme
     J. Comput. Chem. 2020 41 , 922-939
     doi.org/10.1002/jcc.26139
  5. Neese, F.
     The SHARK Integral Generation and Digestion System
     J. Comp. Chem. 2022 44(3), 381
     doi.org/10.1002/jcc.26942

List of suggested additional citations. These are papers that are important in the 'surrounding' of 
of this run, or papers that preceded the highly important papers. If you like your results we are grateful for a citation.

  1. Neese, F.
     The ORCA program system
     WIRES Comput. Molec. Sci. 2012 2(1), 73-78
     doi.org/10.1002/wcms.81
  2. Neese, F.
     Software update: the ORCA program system, version 4.0
     WIRES Comput. Molec. Sci. 2018 8(1), 1-6
     doi.org/10.1002/wcms.1327
  3. Neese, F.; Wennmohs, F.; Becker, U.; Riplinger, C.
     The ORCA quantum chemistry program package
     J. Chem. Phys. 2020 152(22), 224108
     doi.org/10.1063/5.0004608
  4. Neese, F.
     Software update: The ORCA program system—Version 5.0
     WIRES Comput. Molec. Sci. 2022 12(1), e1606
     doi.org/10.1002/wcms.1606

List of optional additional citations

  1. Neese, F.
     Approximate second-order SCF convergence for spin unrestricted wavefunctions
     Chem. Phys. Lett. 2000 325(1-3), 93-98
     doi.org/10.1016/s0009-2614(00)00662-x

Timings for individual modules:

Sum of individual times          ...     2835.750 sec (=  47.262 min)
Startup calculation              ...       54.093 sec (=   0.902 min)   1.9 %
SCF iterations                   ...     1852.190 sec (=  30.870 min)  65.3 %
Property integrals               ...      743.859 sec (=  12.398 min)  26.2 %
SCF Response                     ...       63.335 sec (=   1.056 min)   2.2 %
Property calculations            ...      122.272 sec (=   2.038 min)   4.3 %
                             ****ORCA TERMINATED NORMALLY****
TOTAL RUN TIME: 0 days 0 hours 47 minutes 16 seconds 690 msec
